
     Program PWSCF v.6.0 (svn rev. 13079) starts on 26Feb2021 at 20:38:24 

     This program is part of the open-source Quantum ESPRESSO suite
     for quantum simulation of materials; please cite
         "P. Giannozzi et al., J. Phys.:Condens. Matter 21 395502 (2009);
          URL http://www.quantum-espresso.org", 
     in publications or presentations arising from this work. More details at
     http://www.quantum-espresso.org/quote

     Parallel version (MPI), running on     1 processors
     Reading input from espresso.pwi
Warning: card &IONS ignored
Warning: card / ignored
Warning: card &CELL ignored
Warning: card / ignored

     Current dimensions of program PWSCF are:
     Max number of different atomic species (ntypx) = 10
     Max number of k-points (npk) =  40000
     Max angular momentum in pseudopotentials (lmaxx) =  3
     Message from routine input:
     WARNING: "startingwfc" set to atomic+random may spoil restart

     Atomic positions and unit cell read from directory:
     ./pwscf.save/


     IMPORTANT: XC functional enforced from input :
     Exchange-correlation      = PBE ( 1  4  3  4 0 0)
     Any further DFT definition will be discarded
     Please, verify this is what you really want


     Subspace diagonalization in iterative solution of the eigenvalue problem:
     a serial algorithm will be used


     G-vector sticks info
     --------------------
     sticks:   dense  smooth     PW     G-vecs:    dense   smooth      PW
     Sum         649     511    163                20315    14533    2465



     bravais-lattice index     =            0
     lattice parameter (alat)  =       6.7889  a.u.
     unit-cell volume          =     425.5609 (a.u.)^3
     number of atoms/cell      =            2
     number of atomic types    =            1
     number of electrons       =        26.00
     number of Kohn-Sham states=           17
     kinetic-energy cutoff     =      40.0000  Ry
     charge density cutoff     =     200.0000  Ry
     Exchange-correlation      = PBE ( 1  4  3  4 0 0)

     celldm(1)=   6.788934  celldm(2)=   0.000000  celldm(3)=   0.000000
     celldm(4)=   0.000000  celldm(5)=   0.000000  celldm(6)=   0.000000

     crystal axes: (cart. coord. in units of alat)
               a(1) = (   1.000000   0.000000   0.000000 )  
               a(2) = (  -0.500000   0.866025   0.000000 )  
               a(3) = (   0.000000   0.000000   1.570458 )  

     reciprocal axes: (cart. coord. in units 2 pi/alat)
               b(1) = (  1.000000  0.577350 -0.000000 )  
               b(2) = (  0.000000  1.154701  0.000000 )  
               b(3) = (  0.000000 -0.000000  0.636757 )  


     PseudoPot. # 1 for Tl read from file:
     /home/inukai/tango/tests/1element/qe_fit_v3_Tl/../pseudo/tl_pbe_v1.2.uspp.F.UPF
     MD5 check sum: b76cf1f7e72655a2b2c53cf6385d7059
     Pseudo is Ultrasoft + core correction, Zval = 13.0
     Generated by new atomic code, or converted to UPF format
     Using radial grid of  899 points,  6 beta functions with: 
                l(1) =   0
                l(2) =   0
                l(3) =   1
                l(4) =   1
                l(5) =   2
                l(6) =   2
     Q(r) pseudized with  6 coefficients,  rinner =    1.100   1.100   1.100
                                                       1.100   1.100

     atomic species   valence    mass     pseudopotential
        Tl            13.00   204.38000     Tl( 1.00)

     24 Sym. Ops., with inversion, found (12 have fractional translation)


                                    s                        frac. trans.

      isym =  1     identity                                     

 cryst.   s( 1) = (     1          0          0      )
                  (     0          1          0      )
                  (     0          0          1      )

 cart.    s( 1) = (  1.0000000  0.0000000  0.0000000 )
                  (  0.0000000  1.0000000  0.0000000 )
                  (  0.0000000  0.0000000  1.0000000 )


      isym =  2     180 deg rotation - cart. axis [0,0,1]        

 cryst.   s( 2) = (    -1          0          0      )    f =(  0.0000000 )
                  (     0         -1          0      )       (  0.0000000 )
                  (     0          0          1      )       (  0.5000000 )

 cart.    s( 2) = ( -1.0000000  0.0000000  0.0000000 )    f =(  0.0000000 )
                  (  0.0000000 -1.0000000  0.0000000 )       (  0.0000000 )
                  (  0.0000000  0.0000000  1.0000000 )       (  0.7852291 )


      isym =  3     180 deg rotation - cart. axis [0,1,0]        

 cryst.   s( 3) = (    -1          0          0      )    f =(  0.0000000 )
                  (     1          1          0      )       (  0.0000000 )
                  (     0          0         -1      )       (  0.5000000 )

 cart.    s( 3) = ( -1.0000000  0.0000000  0.0000000 )    f =(  0.0000000 )
                  (  0.0000000  1.0000000  0.0000000 )       (  0.0000000 )
                  (  0.0000000  0.0000000 -1.0000000 )       (  0.7852291 )


      isym =  4     180 deg rotation - cart. axis [1,0,0]        

 cryst.   s( 4) = (     1          0          0      )
                  (    -1         -1          0      )
                  (     0          0         -1      )

 cart.    s( 4) = (  1.0000000  0.0000000  0.0000000 )
                  (  0.0000000 -1.0000000  0.0000000 )
                  (  0.0000000  0.0000000 -1.0000000 )


      isym =  5      60 deg rotation - cryst. axis [0,0,1]       

 cryst.   s( 5) = (     1          1          0      )    f =(  0.0000000 )
                  (    -1          0          0      )       (  0.0000000 )
                  (     0          0          1      )       (  0.5000000 )

 cart.    s( 5) = (  0.5000000 -0.8660254  0.0000000 )    f =(  0.0000000 )
                  (  0.8660254  0.5000000  0.0000000 )       (  0.0000000 )
                  (  0.0000000  0.0000000  1.0000000 )       (  0.7852291 )


      isym =  6      60 deg rotation - cryst. axis [0,0,-1]      

 cryst.   s( 6) = (     0         -1          0      )    f =(  0.0000000 )
                  (     1          1          0      )       (  0.0000000 )
                  (     0          0          1      )       (  0.5000000 )

 cart.    s( 6) = (  0.5000000  0.8660254  0.0000000 )    f =(  0.0000000 )
                  ( -0.8660254  0.5000000  0.0000000 )       (  0.0000000 )
                  (  0.0000000  0.0000000  1.0000000 )       (  0.7852291 )


      isym =  7     120 deg rotation - cryst. axis [0,0,1]       

 cryst.   s( 7) = (     0          1          0      )
                  (    -1         -1          0      )
                  (     0          0          1      )

 cart.    s( 7) = ( -0.5000000 -0.8660254  0.0000000 )
                  (  0.8660254 -0.5000000  0.0000000 )
                  (  0.0000000  0.0000000  1.0000000 )


      isym =  8     120 deg rotation - cryst. axis [0,0,-1]      

 cryst.   s( 8) = (    -1         -1          0      )
                  (     1          0          0      )
                  (     0          0          1      )

 cart.    s( 8) = ( -0.5000000  0.8660254  0.0000000 )
                  ( -0.8660254 -0.5000000  0.0000000 )
                  (  0.0000000  0.0000000  1.0000000 )


      isym =  9     180 deg rotation - cryst. axis [1,-1,0]      

 cryst.   s( 9) = (     0         -1          0      )    f =(  0.0000000 )
                  (    -1          0          0      )       (  0.0000000 )
                  (     0          0         -1      )       (  0.5000000 )

 cart.    s( 9) = (  0.5000000 -0.8660254  0.0000000 )    f =(  0.0000000 )
                  ( -0.8660254 -0.5000000  0.0000000 )       (  0.0000000 )
                  (  0.0000000  0.0000000 -1.0000000 )       (  0.7852291 )


      isym = 10     180 deg rotation - cryst. axis [2,1,0]       

 cryst.   s(10) = (     1          1          0      )    f =(  0.0000000 )
                  (     0         -1          0      )       (  0.0000000 )
                  (     0          0         -1      )       (  0.5000000 )

 cart.    s(10) = (  0.5000000  0.8660254  0.0000000 )    f =(  0.0000000 )
                  (  0.8660254 -0.5000000  0.0000000 )       (  0.0000000 )
                  (  0.0000000  0.0000000 -1.0000000 )       (  0.7852291 )


      isym = 11     180 deg rotation - cryst. axis [0,1,0]       

 cryst.   s(11) = (    -1         -1          0      )
                  (     0          1          0      )
                  (     0          0         -1      )

 cart.    s(11) = ( -0.5000000 -0.8660254  0.0000000 )
                  ( -0.8660254  0.5000000  0.0000000 )
                  (  0.0000000  0.0000000 -1.0000000 )


      isym = 12     180 deg rotation - cryst. axis [1,1,0]       

 cryst.   s(12) = (     0          1          0      )
                  (     1          0          0      )
                  (     0          0         -1      )

 cart.    s(12) = ( -0.5000000  0.8660254  0.0000000 )
                  (  0.8660254  0.5000000  0.0000000 )
                  (  0.0000000  0.0000000 -1.0000000 )


      isym = 13     inversion                                    

 cryst.   s(13) = (    -1          0          0      )
                  (     0         -1          0      )
                  (     0          0         -1      )

 cart.    s(13) = ( -1.0000000  0.0000000  0.0000000 )
                  (  0.0000000 -1.0000000  0.0000000 )
                  (  0.0000000  0.0000000 -1.0000000 )


      isym = 14     inv. 180 deg rotation - cart. axis [0,0,1]   

 cryst.   s(14) = (     1          0          0      )    f =(  0.0000000 )
                  (     0          1          0      )       (  0.0000000 )
                  (     0          0         -1      )       (  0.5000000 )

 cart.    s(14) = (  1.0000000  0.0000000  0.0000000 )    f =(  0.0000000 )
                  (  0.0000000  1.0000000  0.0000000 )       (  0.0000000 )
                  (  0.0000000  0.0000000 -1.0000000 )       (  0.7852291 )


      isym = 15     inv. 180 deg rotation - cart. axis [0,1,0]   

 cryst.   s(15) = (     1          0          0      )    f =(  0.0000000 )
                  (    -1         -1          0      )       (  0.0000000 )
                  (     0          0          1      )       (  0.5000000 )

 cart.    s(15) = (  1.0000000  0.0000000  0.0000000 )    f =(  0.0000000 )
                  (  0.0000000 -1.0000000  0.0000000 )       (  0.0000000 )
                  (  0.0000000  0.0000000  1.0000000 )       (  0.7852291 )


      isym = 16     inv. 180 deg rotation - cart. axis [1,0,0]   

 cryst.   s(16) = (    -1          0          0      )
                  (     1          1          0      )
                  (     0          0          1      )

 cart.    s(16) = ( -1.0000000  0.0000000  0.0000000 )
                  (  0.0000000  1.0000000  0.0000000 )
                  (  0.0000000  0.0000000  1.0000000 )


      isym = 17     inv.  60 deg rotation - cryst. axis [0,0,1]  

 cryst.   s(17) = (    -1         -1          0      )    f =(  0.0000000 )
                  (     1          0          0      )       (  0.0000000 )
                  (     0          0         -1      )       (  0.5000000 )

 cart.    s(17) = ( -0.5000000  0.8660254  0.0000000 )    f =(  0.0000000 )
                  ( -0.8660254 -0.5000000  0.0000000 )       (  0.0000000 )
                  (  0.0000000  0.0000000 -1.0000000 )       (  0.7852291 )


      isym = 18     inv.  60 deg rotation - cryst. axis [0,0,-1] 

 cryst.   s(18) = (     0          1          0      )    f =(  0.0000000 )
                  (    -1         -1          0      )       (  0.0000000 )
                  (     0          0         -1      )       (  0.5000000 )

 cart.    s(18) = ( -0.5000000 -0.8660254  0.0000000 )    f =(  0.0000000 )
                  (  0.8660254 -0.5000000  0.0000000 )       (  0.0000000 )
                  (  0.0000000  0.0000000 -1.0000000 )       (  0.7852291 )


      isym = 19     inv. 120 deg rotation - cryst. axis [0,0,1]  

 cryst.   s(19) = (     0         -1          0      )
                  (     1          1          0      )
                  (     0          0         -1      )

 cart.    s(19) = (  0.5000000  0.8660254  0.0000000 )
                  ( -0.8660254  0.5000000  0.0000000 )
                  (  0.0000000  0.0000000 -1.0000000 )


      isym = 20     inv. 120 deg rotation - cryst. axis [0,0,-1] 

 cryst.   s(20) = (     1          1          0      )
                  (    -1          0          0      )
                  (     0          0         -1      )

 cart.    s(20) = (  0.5000000 -0.8660254  0.0000000 )
                  (  0.8660254  0.5000000  0.0000000 )
                  (  0.0000000  0.0000000 -1.0000000 )


      isym = 21     inv. 180 deg rotation - cryst. axis [1,-1,0] 

 cryst.   s(21) = (     0          1          0      )    f =(  0.0000000 )
                  (     1          0          0      )       (  0.0000000 )
                  (     0          0          1      )       (  0.5000000 )

 cart.    s(21) = ( -0.5000000  0.8660254  0.0000000 )    f =(  0.0000000 )
                  (  0.8660254  0.5000000  0.0000000 )       (  0.0000000 )
                  (  0.0000000  0.0000000  1.0000000 )       (  0.7852291 )


      isym = 22     inv. 180 deg rotation - cryst. axis [2,1,0]  

 cryst.   s(22) = (    -1         -1          0      )    f =(  0.0000000 )
                  (     0          1          0      )       (  0.0000000 )
                  (     0          0          1      )       (  0.5000000 )

 cart.    s(22) = ( -0.5000000 -0.8660254  0.0000000 )    f =(  0.0000000 )
                  ( -0.8660254  0.5000000  0.0000000 )       (  0.0000000 )
                  (  0.0000000  0.0000000  1.0000000 )       (  0.7852291 )


      isym = 23     inv. 180 deg rotation - cryst. axis [0,1,0]  

 cryst.   s(23) = (     1          1          0      )
                  (     0         -1          0      )
                  (     0          0          1      )

 cart.    s(23) = (  0.5000000  0.8660254  0.0000000 )
                  (  0.8660254 -0.5000000  0.0000000 )
                  (  0.0000000  0.0000000  1.0000000 )


      isym = 24     inv. 180 deg rotation - cryst. axis [1,1,0]  

 cryst.   s(24) = (     0         -1          0      )
                  (    -1          0          0      )
                  (     0          0          1      )

 cart.    s(24) = (  0.5000000 -0.8660254  0.0000000 )
                  ( -0.8660254 -0.5000000  0.0000000 )
                  (  0.0000000  0.0000000  1.0000000 )


   Cartesian axes

     site n.     atom                  positions (alat units)
         1           Tl  tau(   1) = (   0.0000000   0.5773503   1.1778436  )
         2           Tl  tau(   2) = (   0.5000000   0.2886751   0.3926145  )

   Crystallographic axes

     site n.     atom                  positions (cryst. coord.)
         1           Tl  tau(   1) = (  0.3333333  0.6666667  0.7500000  )
         2           Tl  tau(   2) = (  0.6666667  0.3333333  0.2500000  )

     number of k points=    50  gaussian smearing, width (Ry)=  0.0010
                       cart. coord. in units 2pi/alat
        k(    1) = (   0.0000000   0.0000000   0.0000000), wk =   0.0400000
        k(    2) = (   0.0833333   0.0481125   0.0000000), wk =   0.0400000
        k(    3) = (   0.1666667   0.0962250   0.0000000), wk =   0.0400000
        k(    4) = (   0.2500000   0.1443376   0.0000000), wk =   0.0400000
        k(    5) = (   0.3333333   0.1924501   0.0000000), wk =   0.0400000
        k(    6) = (   0.4166667   0.2405626   0.0000000), wk =   0.0400000
        k(    7) = (   0.5000000   0.2886751   0.0000000), wk =   0.0400000
        k(    8) = (   0.4444444   0.3849002   0.0000000), wk =   0.0400000
        k(    9) = (   0.3888889   0.4811252   0.0000000), wk =   0.0400000
        k(   10) = (   0.3333333   0.5773503   0.0000000), wk =   0.0400000
        k(   11) = (   0.2916667   0.5051815   0.0000000), wk =   0.0400000
        k(   12) = (   0.2500000   0.4330127   0.0000000), wk =   0.0400000
        k(   13) = (   0.2083333   0.3608439   0.0000000), wk =   0.0400000
        k(   14) = (   0.1666667   0.2886751   0.0000000), wk =   0.0400000
        k(   15) = (   0.1250000   0.2165064   0.0000000), wk =   0.0400000
        k(   16) = (   0.0833333   0.1443376   0.0000000), wk =   0.0400000
        k(   17) = (   0.0416667   0.0721688   0.0000000), wk =   0.0400000
        k(   18) = (   0.0000000   0.0000000   0.0000000), wk =   0.0400000
        k(   19) = (   0.0000000   0.0000000   0.1061261), wk =   0.0400000
        k(   20) = (   0.0000000   0.0000000   0.2122523), wk =   0.0400000
        k(   21) = (   0.0000000   0.0000000   0.3183784), wk =   0.0400000
        k(   22) = (   0.0714286   0.0412393   0.3183784), wk =   0.0400000
        k(   23) = (   0.1428571   0.0824786   0.3183784), wk =   0.0400000
        k(   24) = (   0.2142857   0.1237179   0.3183784), wk =   0.0400000
        k(   25) = (   0.2857143   0.1649572   0.3183784), wk =   0.0400000
        k(   26) = (   0.3571429   0.2061965   0.3183784), wk =   0.0400000
        k(   27) = (   0.4285714   0.2474358   0.3183784), wk =   0.0400000
        k(   28) = (   0.5000000   0.2886751   0.3183784), wk =   0.0400000
        k(   29) = (   0.4583333   0.3608439   0.3183784), wk =   0.0400000
        k(   30) = (   0.4166667   0.4330127   0.3183784), wk =   0.0400000
        k(   31) = (   0.3750000   0.5051815   0.3183784), wk =   0.0400000
        k(   32) = (   0.3333333   0.5773503   0.3183784), wk =   0.0400000
        k(   33) = (   0.2962963   0.5132002   0.3183784), wk =   0.0400000
        k(   34) = (   0.2592593   0.4490502   0.3183784), wk =   0.0400000
        k(   35) = (   0.2222222   0.3849002   0.3183784), wk =   0.0400000
        k(   36) = (   0.1851852   0.3207501   0.3183784), wk =   0.0400000
        k(   37) = (   0.1481481   0.2566001   0.3183784), wk =   0.0400000
        k(   38) = (   0.1111111   0.1924501   0.3183784), wk =   0.0400000
        k(   39) = (   0.0740741   0.1283001   0.3183784), wk =   0.0400000
        k(   40) = (   0.0370370   0.0641500   0.3183784), wk =   0.0400000
        k(   41) = (   0.0000000   0.0000000   0.3183784), wk =   0.0400000
        k(   42) = (   0.5000000   0.2886751   0.3183784), wk =   0.0400000
        k(   43) = (   0.5000000   0.2886751   0.2387838), wk =   0.0400000
        k(   44) = (   0.5000000   0.2886751   0.1591892), wk =   0.0400000
        k(   45) = (   0.5000000   0.2886751   0.0795946), wk =   0.0400000
        k(   46) = (   0.5000000   0.2886751   0.0000000), wk =   0.0400000
        k(   47) = (   0.3333333   0.5773503   0.0000000), wk =   0.0400000
        k(   48) = (   0.3333333   0.5773503   0.1061261), wk =   0.0400000
        k(   49) = (   0.3333333   0.5773503   0.2122523), wk =   0.0400000
        k(   50) = (   0.3333333   0.5773503   0.3183784), wk =   0.0400000

                       cryst. coord.
        k(    1) = (   0.0000000   0.0000000   0.0000000), wk =   0.0400000
        k(    2) = (   0.0833333   0.0000000   0.0000000), wk =   0.0400000
        k(    3) = (   0.1666667   0.0000000   0.0000000), wk =   0.0400000
        k(    4) = (   0.2500000   0.0000000   0.0000000), wk =   0.0400000
        k(    5) = (   0.3333333   0.0000000   0.0000000), wk =   0.0400000
        k(    6) = (   0.4166667   0.0000000   0.0000000), wk =   0.0400000
        k(    7) = (   0.5000000   0.0000000   0.0000000), wk =   0.0400000
        k(    8) = (   0.4444444   0.1111111   0.0000000), wk =   0.0400000
        k(    9) = (   0.3888889   0.2222222   0.0000000), wk =   0.0400000
        k(   10) = (   0.3333333   0.3333333   0.0000000), wk =   0.0400000
        k(   11) = (   0.2916667   0.2916667   0.0000000), wk =   0.0400000
        k(   12) = (   0.2500000   0.2500000   0.0000000), wk =   0.0400000
        k(   13) = (   0.2083333   0.2083333   0.0000000), wk =   0.0400000
        k(   14) = (   0.1666667   0.1666667   0.0000000), wk =   0.0400000
        k(   15) = (   0.1250000   0.1250000   0.0000000), wk =   0.0400000
        k(   16) = (   0.0833333   0.0833333   0.0000000), wk =   0.0400000
        k(   17) = (   0.0416667   0.0416667   0.0000000), wk =   0.0400000
        k(   18) = (   0.0000000   0.0000000   0.0000000), wk =   0.0400000
        k(   19) = (   0.0000000   0.0000000   0.1666667), wk =   0.0400000
        k(   20) = (   0.0000000   0.0000000   0.3333333), wk =   0.0400000
        k(   21) = (   0.0000000   0.0000000   0.5000000), wk =   0.0400000
        k(   22) = (   0.0714286   0.0000000   0.5000000), wk =   0.0400000
        k(   23) = (   0.1428571   0.0000000   0.5000000), wk =   0.0400000
        k(   24) = (   0.2142857   0.0000000   0.5000000), wk =   0.0400000
        k(   25) = (   0.2857143  -0.0000000   0.5000000), wk =   0.0400000
        k(   26) = (   0.3571429   0.0000000   0.5000000), wk =   0.0400000
        k(   27) = (   0.4285714   0.0000000   0.5000000), wk =   0.0400000
        k(   28) = (   0.5000000   0.0000000   0.5000000), wk =   0.0400000
        k(   29) = (   0.4583333   0.0833333   0.5000000), wk =   0.0400000
        k(   30) = (   0.4166667   0.1666667   0.5000000), wk =   0.0400000
        k(   31) = (   0.3750000   0.2500000   0.5000000), wk =   0.0400000
        k(   32) = (   0.3333333   0.3333333   0.5000000), wk =   0.0400000
        k(   33) = (   0.2962963   0.2962963   0.5000000), wk =   0.0400000
        k(   34) = (   0.2592593   0.2592593   0.5000000), wk =   0.0400000
        k(   35) = (   0.2222222   0.2222222   0.5000000), wk =   0.0400000
        k(   36) = (   0.1851852   0.1851852   0.5000000), wk =   0.0400000
        k(   37) = (   0.1481481   0.1481481   0.5000000), wk =   0.0400000
        k(   38) = (   0.1111111   0.1111111   0.5000000), wk =   0.0400000
        k(   39) = (   0.0740741   0.0740741   0.5000000), wk =   0.0400000
        k(   40) = (   0.0370370   0.0370370   0.5000000), wk =   0.0400000
        k(   41) = (   0.0000000   0.0000000   0.5000000), wk =   0.0400000
        k(   42) = (   0.5000000   0.0000000   0.5000000), wk =   0.0400000
        k(   43) = (   0.5000000   0.0000000   0.3750000), wk =   0.0400000
        k(   44) = (   0.5000000   0.0000000   0.2500000), wk =   0.0400000
        k(   45) = (   0.5000000   0.0000000   0.1250000), wk =   0.0400000
        k(   46) = (   0.5000000   0.0000000   0.0000000), wk =   0.0400000
        k(   47) = (   0.3333333   0.3333333   0.0000000), wk =   0.0400000
        k(   48) = (   0.3333333   0.3333333   0.1666667), wk =   0.0400000
        k(   49) = (   0.3333333   0.3333333   0.3333333), wk =   0.0400000
        k(   50) = (   0.3333333   0.3333333   0.5000000), wk =   0.0400000

     Dense  grid:    20315 G-vectors     FFT dimensions: (  32,  32,  48)

     Smooth grid:    14533 G-vectors     FFT dimensions: (  27,  27,  45)

     Estimated max dynamical RAM per process >      34.80Mb

     Check: negative/imaginary core charge=   -0.000007    0.000000

     The potential is recalculated from file :
     ./pwscf.save/charge-density.dat


     negative rho (up, down):  1.051E-01 0.000E+00
     Starting wfc are   18 randomized atomic wfcs

     Band Structure Calculation
     Davidson diagonalization with overlap

     Computing kpt #:     1
     total cpu time spent up to now is        1.7 secs

     Computing kpt #:     2
     total cpu time spent up to now is        2.6 secs

     Computing kpt #:     3
     total cpu time spent up to now is        4.0 secs

     Computing kpt #:     4
     total cpu time spent up to now is        5.0 secs

     Computing kpt #:     5
     total cpu time spent up to now is        5.8 secs

     Computing kpt #:     6
     total cpu time spent up to now is        6.6 secs

     Computing kpt #:     7
     total cpu time spent up to now is        7.4 secs

     Computing kpt #:     8
     total cpu time spent up to now is        8.1 secs

     Computing kpt #:     9
     total cpu time spent up to now is        9.1 secs

     Computing kpt #:    10
     total cpu time spent up to now is       10.1 secs

     Computing kpt #:    11
     total cpu time spent up to now is       11.0 secs

     Computing kpt #:    12
     total cpu time spent up to now is       11.9 secs

     Computing kpt #:    13
     total cpu time spent up to now is       12.9 secs

     Computing kpt #:    14
     total cpu time spent up to now is       13.9 secs

     Computing kpt #:    15
     total cpu time spent up to now is       14.9 secs

     Computing kpt #:    16
     total cpu time spent up to now is       16.0 secs

     Computing kpt #:    17
     total cpu time spent up to now is       17.0 secs

     Computing kpt #:    18
     total cpu time spent up to now is       18.0 secs

     Computing kpt #:    19
     total cpu time spent up to now is       19.0 secs

     Computing kpt #:    20
     total cpu time spent up to now is       20.0 secs

     Computing kpt #:    21
     total cpu time spent up to now is       20.8 secs

     Computing kpt #:    22
     total cpu time spent up to now is       21.9 secs

     Computing kpt #:    23
     total cpu time spent up to now is       22.8 secs

     Computing kpt #:    24
     total cpu time spent up to now is       23.6 secs

     Computing kpt #:    25
     total cpu time spent up to now is       24.5 secs

     Computing kpt #:    26
     total cpu time spent up to now is       25.5 secs

     Computing kpt #:    27
     total cpu time spent up to now is       26.5 secs

     Computing kpt #:    28
     total cpu time spent up to now is       27.4 secs

     Computing kpt #:    29
     total cpu time spent up to now is       28.3 secs

     Computing kpt #:    30
     total cpu time spent up to now is       29.1 secs

     Computing kpt #:    31
     total cpu time spent up to now is       29.8 secs

     Computing kpt #:    32
     total cpu time spent up to now is       30.6 secs

     Computing kpt #:    33
     total cpu time spent up to now is       31.3 secs

     Computing kpt #:    34
     total cpu time spent up to now is       32.1 secs

     Computing kpt #:    35
     total cpu time spent up to now is       32.9 secs

     Computing kpt #:    36
     total cpu time spent up to now is       33.7 secs

     Computing kpt #:    37
     total cpu time spent up to now is       34.6 secs

     Computing kpt #:    38
     total cpu time spent up to now is       35.6 secs

     Computing kpt #:    39
     total cpu time spent up to now is       36.5 secs

     Computing kpt #:    40
     total cpu time spent up to now is       37.6 secs

     Computing kpt #:    41
     total cpu time spent up to now is       38.5 secs

     Computing kpt #:    42
     total cpu time spent up to now is       39.4 secs

     Computing kpt #:    43
     total cpu time spent up to now is       40.5 secs

     Computing kpt #:    44
     total cpu time spent up to now is       41.4 secs

     Computing kpt #:    45
     total cpu time spent up to now is       42.2 secs

     Computing kpt #:    46
     total cpu time spent up to now is       42.9 secs

     Computing kpt #:    47
     total cpu time spent up to now is       43.8 secs

     Computing kpt #:    48
     total cpu time spent up to now is       44.6 secs

     Computing kpt #:    49
     total cpu time spent up to now is       45.4 secs

     Computing kpt #:    50
     total cpu time spent up to now is       46.1 secs

     ethr =  3.85E-10,  avg # of iterations = 19.8

     total cpu time spent up to now is       46.1 secs

     End of band structure calculation

          k = 0.0000 0.0000 0.0000 (  1797 PWs)   bands (ev):

    -2.2322  -2.0664  -2.0659  -2.0659  -2.0240  -2.0240  -1.9948  -1.9948
    -1.7091  -1.7091  -0.0336   4.3837   6.9805  16.5249  16.5249  18.4487
    18.4487

          k = 0.0833 0.0481 0.0000 (  1808 PWs)   bands (ev):

    -2.2177  -2.0989  -2.0436  -2.0295  -2.0221  -2.0071  -2.0054  -2.0034
    -1.7295  -1.7045   0.0844   4.4597   7.1299  15.2015  16.0051  17.4986
    18.7172

          k = 0.1667 0.0962 0.0000 (  1814 PWs)   bands (ev):

    -2.2101  -2.1067  -2.0423  -2.0320  -2.0280  -1.9827  -1.9704  -1.9454
    -1.7798  -1.6942   0.4424   4.6863   7.5659  13.0503  15.0842  16.0267
    18.4315

          k = 0.2500 0.1443 0.0000 (  1826 PWs)   bands (ev):

    -2.2492  -2.0977  -2.0974  -2.0656  -2.0079  -1.8993  -1.8972  -1.8640
    -1.8359  -1.6826   1.0436   5.0423   8.2553  10.9865  14.2127  14.2386
    16.8304

          k = 0.3333 0.1925 0.0000 (  1824 PWs)   bands (ev):

    -2.2965  -2.1598  -2.1169  -2.0966  -1.9622  -1.8807  -1.8190  -1.8149
    -1.7783  -1.6733   1.8741   5.3973   9.1459   9.3086  12.4268  13.5253
    15.2031

          k = 0.4167 0.2406 0.0000 (  1832 PWs)   bands (ev):

    -2.3317  -2.2086  -2.1388  -2.1182  -1.9278  -1.9081  -1.7593  -1.7524
    -1.7133  -1.6676   2.8734   5.2819   8.5419  10.1296  10.8569  13.0876
    13.7656

          k = 0.5000 0.2887 0.0000 (  1826 PWs)   bands (ev):

    -2.3444  -2.2264  -2.1475  -2.1256  -1.9170  -1.9154  -1.7373  -1.7298
    -1.6887  -1.6655   3.6151   4.7461   8.6724  10.0267  10.7308  12.9374
    13.0125

          k = 0.4444 0.3849 0.0000 (  1828 PWs)   bands (ev):

    -2.2997  -2.2443  -2.1147  -2.1046  -1.9280  -1.9145  -1.8039  -1.7067
    -1.7033  -1.6724   3.7354   4.8230   8.7071  10.2080  10.9184  11.9395
    13.0429

          k = 0.3889 0.4811 0.0000 (  1815 PWs)   bands (ev):

    -2.2724  -2.1864  -2.0650  -2.0612  -1.9616  -1.9018  -1.8917  -1.7422
    -1.7085  -1.6844   4.0970   4.9462   8.5703  10.7174  10.8607  11.4677
    12.9835

          k = 0.3333 0.5774 0.0000 (  1803 PWs)   bands (ev):

    -2.2852  -2.0779  -2.0779  -2.0109  -2.0109  -1.9746  -1.8546  -1.7408
    -1.7408  -1.6889   4.6772   4.6772   8.2512  11.0359  11.0359  12.1538
    12.3442

          k = 0.2917 0.5052 0.0000 (  1819 PWs)   bands (ev):

    -2.2761  -2.1101  -2.1013  -2.0466  -1.9726  -1.9266  -1.8724  -1.7775
    -1.7048  -1.6872   3.9839   5.1745   8.5350  10.2403  11.4469  11.6978
    12.7259

          k = 0.2500 0.4330 0.0000 (  1811 PWs)   bands (ev):

    -2.2458  -2.1410  -2.1398  -2.0708  -1.9346  -1.9039  -1.8735  -1.8202
    -1.6951  -1.6841   3.0823   5.5308   9.2888   9.7462  10.4528  12.6114
    13.6969

          k = 0.2083 0.3608 0.0000 (  1801 PWs)   bands (ev):

    -2.1961  -2.1623  -2.1607  -2.0790  -1.9397  -1.8959  -1.8693  -1.8525
    -1.7305  -1.6822   2.1870   5.5253   9.5008  10.0023  10.3613  13.7139
    14.8251

          k = 0.1667 0.2887 0.0000 (  1813 PWs)   bands (ev):

    -2.1723  -2.1638  -2.1351  -2.0711  -1.9744  -1.9142  -1.8713  -1.8562
    -1.8074  -1.6840   1.4016   5.2336   8.6544  10.9422  11.6626  14.9572
    16.0488

          k = 0.1250 0.2165 0.0000 (  1819 PWs)   bands (ev):

    -2.1817  -2.1489  -2.0753  -2.0507  -2.0023  -1.9580  -1.9146  -1.9046
    -1.8115  -1.6895   0.7732   4.8881   7.9516  12.3008  13.1253  16.2417
    17.2681

          k = 0.0833 0.1443 0.0000 (  1821 PWs)   bands (ev):

    -2.1981  -2.1245  -2.0296  -2.0251  -2.0183  -1.9976  -1.9931  -1.9669
    -1.7644  -1.6980   0.3226   4.6113   7.4226  13.8904  14.6566  17.2703
    18.2085

          k = 0.0417 0.0722 0.0000 (  1803 PWs)   bands (ev):

    -2.2206  -2.0955  -2.0483  -2.0338  -2.0233  -2.0088  -2.0036  -2.0031
    -1.7245  -1.7058   0.0548   4.4407   7.0928  15.5283  16.0015  17.8431
    18.5288

          k = 0.0000 0.0000 0.0000 (  1797 PWs)   bands (ev):

    -2.2322  -2.0664  -2.0659  -2.0659  -2.0240  -2.0240  -1.9948  -1.9948
    -1.7091  -1.7091  -0.0336   4.3837   6.9805  16.5249  16.5249  18.4487
    18.4487

          k = 0.0000 0.0000 0.1061 (  1791 PWs)   bands (ev):

    -2.2167  -2.0909  -2.0909  -2.0703  -2.0377  -2.0377  -1.9477  -1.9477
    -1.7171  -1.7171   0.1091   3.5537   8.0987  16.6410  16.6410  18.0540
    18.3199

          k = 0.0000 0.0000 0.2123 (  1804 PWs)   bands (ev):

    -2.1772  -2.1085  -2.1085  -2.0887  -2.0695  -2.0695  -1.8704  -1.8704
    -1.7460  -1.7460   0.5471   2.3229  10.1905  15.3241  16.9704  16.9704
    17.9526

          k = 0.0000 0.0000 0.3184 (  1846 PWs)   bands (ev):

    -2.1293  -2.1293  -2.0989  -2.0989  -2.0989  -2.0989  -1.7992  -1.7992
    -1.7992  -1.7992   1.2905   1.2905  12.6428  12.6428  17.4491  17.4491
    17.4491

          k = 0.0714 0.0412 0.3184 (  1826 PWs)   bands (ev):

    -2.1312  -2.1312  -2.0926  -2.0926  -2.0848  -2.0848  -1.8090  -1.8090
    -1.7993  -1.7993   1.3784   1.3784  12.6752  12.6752  16.5759  16.5759
    17.2077

          k = 0.1429 0.0825 0.3184 (  1812 PWs)   bands (ev):

    -2.1483  -2.1483  -2.0719  -2.0719  -2.0463  -2.0463  -1.8289  -1.8289
    -1.7996  -1.7996   1.6406   1.6406  12.6803  12.6803  15.0589  15.0589
    16.6400

          k = 0.2143 0.1237 0.3184 (  1812 PWs)   bands (ev):

    -2.1764  -2.1764  -2.0679  -2.0679  -1.9946  -1.9946  -1.8283  -1.8283
    -1.7954  -1.7954   2.0731   2.0731  12.1048  12.1048  14.1500  14.1500
    15.9818

          k = 0.2857 0.1650 0.3184 (  1828 PWs)   bands (ev):

    -2.2057  -2.2057  -2.1003  -2.1003  -1.9489  -1.9489  -1.7928  -1.7928
    -1.7784  -1.7784   2.6666   2.6666  10.7127  10.7127  14.2381  14.2381
    15.3750

          k = 0.3571 0.2062 0.3184 (  1826 PWs)   bands (ev):

    -2.2275  -2.2275  -2.1481  -2.1481  -1.9234  -1.9234  -1.7457  -1.7457
    -1.7455  -1.7455   3.3925   3.3925   9.2337   9.2337  14.6204  14.6204
    14.8969

          k = 0.4286 0.2474 0.3184 (  1816 PWs)   bands (ev):

    -2.2362  -2.2362  -2.1902  -2.1902  -1.9141  -1.9141  -1.7132  -1.7132
    -1.7104  -1.7104   4.1496   4.1496   7.9928   7.9928  14.5930  14.5930
    14.9857

          k = 0.5000 0.2887 0.3184 (  1804 PWs)   bands (ev):

    -2.2341  -2.2341  -2.2105  -2.2105  -1.9120  -1.9120  -1.6998  -1.6998
    -1.6975  -1.6975   4.5571   4.5571   7.4204   7.4204  14.4889  14.4889
    15.1382

          k = 0.4583 0.3608 0.3184 (  1824 PWs)   bands (ev):

    -2.2292  -2.2292  -2.1857  -2.1857  -1.9233  -1.9233  -1.7248  -1.7248
    -1.6921  -1.6921   4.6102   4.6102   7.5256   7.5256  13.3070  13.3070
    15.7160

          k = 0.4167 0.4330 0.3184 (  1826 PWs)   bands (ev):

    -2.2173  -2.2173  -2.1179  -2.1179  -1.9485  -1.9485  -1.7773  -1.7773
    -1.6927  -1.6927   4.7602   4.7602   7.8300   7.8300  11.7451  11.7451
    16.1260

          k = 0.3750 0.5052 0.3184 (  1832 PWs)   bands (ev):

    -2.2044  -2.2044  -2.0373  -2.0373  -1.9642  -1.9642  -1.8469  -1.8469
    -1.6984  -1.6984   4.9654   4.9654   8.2838   8.2838  10.3691  10.3691
    16.4607

          k = 0.3333 0.5774 0.3184 (  1836 PWs)   bands (ev):

    -2.1989  -2.1989  -2.0150  -2.0150  -1.9274  -1.9274  -1.9050  -1.9050
    -1.7032  -1.7032   5.0915   5.0915   8.6005   8.6005   9.6794   9.6794
    16.6304

          k = 0.2963 0.5132 0.3184 (  1838 PWs)   bands (ev):

    -2.2021  -2.2021  -2.0209  -2.0209  -1.9554  -1.9554  -1.8775  -1.8775
    -1.6966  -1.6966   4.9162   4.9162   8.5419   8.5419  10.1125  10.1125
    16.4501

          k = 0.2593 0.4491 0.3184 (  1814 PWs)   bands (ev):

    -2.2058  -2.2058  -2.0403  -2.0403  -1.9549  -1.9549  -1.8768  -1.8768
    -1.6835  -1.6835   4.3900   4.3900   8.8608   8.8608  10.9175  10.9175
    15.9806

          k = 0.2222 0.3849 0.3184 (  1816 PWs)   bands (ev):

    -2.2042  -2.2042  -2.0558  -2.0558  -1.9456  -1.9456  -1.8895  -1.8895
    -1.6862  -1.6862   3.6972   3.6972   9.5930   9.5930  11.8592  11.8592
    15.4213

          k = 0.1852 0.3208 0.3184 (  1808 PWs)   bands (ev):

    -2.1943  -2.1943  -2.0589  -2.0589  -1.9585  -1.9585  -1.8845  -1.8845
    -1.7124  -1.7124   3.0089   3.0089  10.5789  10.5789  12.8680  12.8680
    14.9436

          k = 0.1481 0.2566 0.3184 (  1816 PWs)   bands (ev):

    -2.1777  -2.1777  -2.0579  -2.0579  -1.9852  -1.9852  -1.8677  -1.8677
    -1.7534  -1.7534   2.4064   2.4064  11.6582  11.6582  13.7875  13.7875
    14.8096

          k = 0.1111 0.1925 0.3184 (  1808 PWs)   bands (ev):

    -2.1580  -2.1580  -2.0667  -2.0667  -2.0138  -2.0138  -1.8491  -1.8491
    -1.7859  -1.7859   1.9233   1.9233  12.4828  12.4828  14.4123  14.4123
    15.4994

          k = 0.0741 0.1283 0.3184 (  1820 PWs)   bands (ev):

    -2.1403  -2.1403  -2.0828  -2.0828  -2.0520  -2.0520  -1.8278  -1.8278
    -1.7980  -1.7980   1.5731   1.5731  12.7013  12.7013  15.4591  15.4591
    16.4906

          k = 0.0370 0.0642 0.3184 (  1826 PWs)   bands (ev):

    -2.1302  -2.1302  -2.0951  -2.0951  -2.0866  -2.0866  -1.8072  -1.8072
    -1.7992  -1.7992   1.3614   1.3614  12.6698  12.6698  16.7375  16.7375
    17.2217

          k = 0.0000 0.0000 0.3184 (  1846 PWs)   bands (ev):

    -2.1293  -2.1293  -2.0989  -2.0989  -2.0989  -2.0989  -1.7992  -1.7992
    -1.7992  -1.7992   1.2905   1.2905  12.6428  12.6428  17.4491  17.4491
    17.4491

          k = 0.5000 0.2887 0.3184 (  1804 PWs)   bands (ev):

    -2.2341  -2.2341  -2.2105  -2.2105  -1.9120  -1.9120  -1.6998  -1.6998
    -1.6975  -1.6975   4.5571   4.5571   7.4204   7.4204  14.4889  14.4889
    15.1382

          k = 0.5000 0.2887 0.2388 (  1820 PWs)   bands (ev):

    -2.2741  -2.2620  -2.1647  -2.1594  -1.9951  -1.8285  -1.7590  -1.7028
    -1.6960  -1.6669   4.1912   4.8331   7.2096   8.0130  13.8417  13.9825
    15.2441

          k = 0.5000 0.2887 0.1592 (  1830 PWs)   bands (ev):

    -2.3051  -2.2784  -2.1334  -2.0646  -2.0645  -1.8335  -1.7619  -1.6990
    -1.6926  -1.6720   3.8803   4.8753   7.5279   8.8018  12.6276  13.3493
    14.5724

          k = 0.5000 0.2887 0.0796 (  1838 PWs)   bands (ev):

    -2.3342  -2.2524  -2.1318  -2.1099  -1.9681  -1.8942  -1.7340  -1.7080
    -1.6901  -1.6786   3.6823   4.7914   8.2035   9.6087  11.3806  13.0419
    13.5253

          k = 0.5000 0.2887 0.0000 (  1826 PWs)   bands (ev):

    -2.3444  -2.2264  -2.1475  -2.1256  -1.9170  -1.9154  -1.7373  -1.7298
    -1.6887  -1.6655   3.6151   4.7461   8.6724  10.0267  10.7308  12.9374
    13.0125

          k = 0.3333 0.5774 0.0000 (  1803 PWs)   bands (ev):

    -2.2852  -2.0779  -2.0779  -2.0109  -2.0109  -1.9746  -1.8546  -1.7408
    -1.7408  -1.6889   4.6772   4.6772   8.2512  11.0359  11.0359  12.1538
    12.3442

          k = 0.3333 0.5774 0.1061 (  1833 PWs)   bands (ev):

    -2.2502  -2.1251  -2.1251  -1.9736  -1.9736  -1.9682  -1.8628  -1.7331
    -1.7317  -1.7317   4.7657   4.7657   8.4218  10.0418  10.0418  11.6267
    13.6270

          k = 0.3333 0.5774 0.2123 (  1833 PWs)   bands (ev):

    -2.1784  -2.1784  -2.1516  -1.9533  -1.9385  -1.9385  -1.8825  -1.8438
    -1.7127  -1.7127   4.9700   4.9700   8.9148   9.0087   9.0087  10.6365
    15.4836

          k = 0.3333 0.5774 0.3184 (  1836 PWs)   bands (ev):

    -2.1989  -2.1989  -2.0150  -2.0150  -1.9274  -1.9274  -1.9050  -1.9050
    -1.7032  -1.7032   5.0915   5.0915   8.6005   8.6005   9.6794   9.6794
    16.6304

     Writing output data file pwscf.save

     init_run     :      0.67s CPU      0.63s WALL (       1 calls)
     electrons    :     98.02s CPU     45.31s WALL (       1 calls)

     Called by init_run:
     wfcinit      :      0.00s CPU      0.00s WALL (       1 calls)
     wfcinit:atom :      0.08s CPU      0.07s WALL (      50 calls)
     wfcinit:wfcr :      6.44s CPU      3.02s WALL (      50 calls)
     potinit      :      0.03s CPU      0.05s WALL (       1 calls)

     Called by electrons:
     c_bands      :     98.02s CPU     45.30s WALL (       1 calls)
     v_of_rho     :      0.03s CPU      0.04s WALL (       1 calls)
     v_h          :      0.00s CPU      0.00s WALL (       1 calls)
     v_xc         :      0.03s CPU      0.04s WALL (       1 calls)
     newd         :      0.09s CPU      0.12s WALL (       1 calls)

     Called by c_bands:
     init_us_2    :      0.16s CPU      0.09s WALL (      50 calls)
     cegterg      :     89.94s CPU     41.44s WALL (      73 calls)

     Called by sum_band:

     Called by *egterg:
     h_psi        :     81.59s CPU     38.19s WALL (    1113 calls)
     s_psi        :      1.25s CPU      0.38s WALL (    1113 calls)
     g_psi        :      0.47s CPU      0.23s WALL (     990 calls)
     cdiaghg      :      6.56s CPU      2.99s WALL (    1040 calls)
     cegterg:over :      2.34s CPU      0.99s WALL (     990 calls)
     cegterg:upda :      2.38s CPU      0.87s WALL (     990 calls)
     cegterg:last :      0.91s CPU      0.34s WALL (     223 calls)

     Called by h_psi:
     h_psi:pot    :     81.30s CPU     38.02s WALL (    1113 calls)
     h_psi:calbec :      1.55s CPU      0.47s WALL (    1113 calls)
     vloc_psi     :     78.16s CPU     37.04s WALL (    1113 calls)
     add_vuspsi   :      1.55s CPU      0.48s WALL (    1113 calls)

     General routines
     calbec       :      1.55s CPU      0.46s WALL (    1113 calls)
     fft          :      0.00s CPU      0.01s WALL (      13 calls)
     ffts         :      0.00s CPU      0.00s WALL (       1 calls)
     fftw         :     72.38s CPU     34.62s WALL (   22890 calls)
     interpolate  :      0.00s CPU      0.00s WALL (       1 calls)
     davcio       :      0.00s CPU      0.01s WALL (      50 calls)

     Parallel routines
     fft_scatter  :      2.89s CPU      1.28s WALL (   22904 calls)

     PWSCF        :  1m39.11s CPU     0m46.37s WALL


   This run was terminated on:  20:39:10  26Feb2021            

=------------------------------------------------------------------------------=
   JOB DONE.
=------------------------------------------------------------------------------=
