
     Program PWSCF v.6.0 (svn rev. 13079) starts on 26Feb2021 at  1:23:40 

     This program is part of the open-source Quantum ESPRESSO suite
     for quantum simulation of materials; please cite
         "P. Giannozzi et al., J. Phys.:Condens. Matter 21 395502 (2009);
          URL http://www.quantum-espresso.org", 
     in publications or presentations arising from this work. More details at
     http://www.quantum-espresso.org/quote

     Parallel version (MPI), running on     1 processors
     Reading input from espresso.pwi
Warning: card &IONS ignored
Warning: card / ignored
Warning: card &CELL ignored
Warning: card / ignored

     Current dimensions of program PWSCF are:
     Max number of different atomic species (ntypx) = 10
     Max number of k-points (npk) =  40000
     Max angular momentum in pseudopotentials (lmaxx) =  3
     Message from routine input:
     WARNING: "startingwfc" set to atomic+random may spoil restart

     Atomic positions and unit cell read from directory:
     ./pwscf.save/


     IMPORTANT: XC functional enforced from input :
     Exchange-correlation      = PBE ( 1  4  3  4 0 0)
     Any further DFT definition will be discarded
     Please, verify this is what you really want


     Subspace diagonalization in iterative solution of the eigenvalue problem:
     a serial algorithm will be used


     G-vector sticks info
     --------------------
     sticks:   dense  smooth     PW     G-vecs:    dense   smooth      PW
     Sum         631     507    165                10149     7155    1289



     bravais-lattice index     =            0
     lattice parameter (alat)  =       6.5217  a.u.
     unit-cell volume          =     213.5264 (a.u.)^3
     number of atoms/cell      =            1
     number of atomic types    =            1
     number of electrons       =        15.00
     number of Kohn-Sham states=           12
     kinetic-energy cutoff     =      40.0000  Ry
     charge density cutoff     =     200.0000  Ry
     Exchange-correlation      = PBE ( 1  4  3  4 0 0)

     celldm(1)=   6.521655  celldm(2)=   0.000000  celldm(3)=   0.000000
     celldm(4)=   0.000000  celldm(5)=   0.000000  celldm(6)=   0.000000

     crystal axes: (cart. coord. in units of alat)
               a(1) = (  -0.577350   0.577350   0.577350 )  
               a(2) = (   0.577350  -0.577350   0.577350 )  
               a(3) = (   0.577350   0.577350  -0.577350 )  

     reciprocal axes: (cart. coord. in units 2 pi/alat)
               b(1) = (  0.000000  0.866025  0.866025 )  
               b(2) = (  0.866025  0.000000  0.866025 )  
               b(3) = (  0.866025  0.866025  0.000000 )  


     PseudoPot. # 1 for Bi read from file:
     /home/inukai/tango/tests/1element/qe_fit_v2_Bi/../pseudo/bi_pbe_v1.uspp.F.UPF
     MD5 check sum: cceb9f28ec65b6d7ff33140f5b0b1758
     Pseudo is Ultrasoft + core correction, Zval = 15.0
     Generated by new atomic code, or converted to UPF format
     Using radial grid of  899 points,  6 beta functions with: 
                l(1) =   0
                l(2) =   0
                l(3) =   1
                l(4) =   1
                l(5) =   2
                l(6) =   2
     Q(r) pseudized with  6 coefficients,  rinner =    1.000   1.000   1.000
                                                       1.000   1.000

     atomic species   valence    mass     pseudopotential
        Bi            15.00   208.98040     Bi( 1.00)

     48 Sym. Ops., with inversion, found


                                    s                        frac. trans.

      isym =  1     identity                                     

 cryst.   s( 1) = (     1          0          0      )
                  (     0          1          0      )
                  (     0          0          1      )

 cart.    s( 1) = (  1.0000000  0.0000000  0.0000000 )
                  (  0.0000000  1.0000000  0.0000000 )
                  (  0.0000000  0.0000000  1.0000000 )


      isym =  2     180 deg rotation - cart. axis [0,0,1]        

 cryst.   s( 2) = (     0          1          0      )
                  (     1          0          0      )
                  (    -1         -1         -1      )

 cart.    s( 2) = ( -1.0000000  0.0000000  0.0000000 )
                  (  0.0000000 -1.0000000  0.0000000 )
                  (  0.0000000  0.0000000  1.0000000 )


      isym =  3     180 deg rotation - cart. axis [0,1,0]        

 cryst.   s( 3) = (     0          0          1      )
                  (    -1         -1         -1      )
                  (     1          0          0      )

 cart.    s( 3) = ( -1.0000000  0.0000000  0.0000000 )
                  (  0.0000000  1.0000000  0.0000000 )
                  (  0.0000000  0.0000000 -1.0000000 )


      isym =  4     180 deg rotation - cart. axis [1,0,0]        

 cryst.   s( 4) = (    -1         -1         -1      )
                  (     0          0          1      )
                  (     0          1          0      )

 cart.    s( 4) = (  1.0000000  0.0000000  0.0000000 )
                  (  0.0000000 -1.0000000  0.0000000 )
                  (  0.0000000  0.0000000 -1.0000000 )


      isym =  5     180 deg rotation - cart. axis [1,1,0]        

 cryst.   s( 5) = (    -1          0          0      )
                  (     0         -1          0      )
                  (     1          1          1      )

 cart.    s( 5) = (  0.0000000  1.0000000  0.0000000 )
                  (  1.0000000  0.0000000  0.0000000 )
                  (  0.0000000  0.0000000 -1.0000000 )


      isym =  6     180 deg rotation - cart. axis [1,-1,0]       

 cryst.   s( 6) = (     0         -1          0      )
                  (    -1          0          0      )
                  (     0          0         -1      )

 cart.    s( 6) = (  0.0000000 -1.0000000  0.0000000 )
                  ( -1.0000000  0.0000000  0.0000000 )
                  (  0.0000000  0.0000000 -1.0000000 )


      isym =  7      90 deg rotation - cart. axis [0,0,-1]       

 cryst.   s( 7) = (     1          1          1      )
                  (     0          0         -1      )
                  (    -1          0          0      )

 cart.    s( 7) = (  0.0000000  1.0000000  0.0000000 )
                  ( -1.0000000  0.0000000  0.0000000 )
                  (  0.0000000  0.0000000  1.0000000 )


      isym =  8      90 deg rotation - cart. axis [0,0,1]        

 cryst.   s( 8) = (     0          0         -1      )
                  (     1          1          1      )
                  (     0         -1          0      )

 cart.    s( 8) = (  0.0000000 -1.0000000  0.0000000 )
                  (  1.0000000  0.0000000  0.0000000 )
                  (  0.0000000  0.0000000  1.0000000 )


      isym =  9     180 deg rotation - cart. axis [1,0,1]        

 cryst.   s( 9) = (    -1          0          0      )
                  (     1          1          1      )
                  (     0          0         -1      )

 cart.    s( 9) = (  0.0000000  0.0000000  1.0000000 )
                  (  0.0000000 -1.0000000  0.0000000 )
                  (  1.0000000  0.0000000  0.0000000 )


      isym = 10     180 deg rotation - cart. axis [-1,0,1]       

 cryst.   s(10) = (     0          0         -1      )
                  (     0         -1          0      )
                  (    -1          0          0      )

 cart.    s(10) = (  0.0000000  0.0000000 -1.0000000 )
                  (  0.0000000 -1.0000000  0.0000000 )
                  ( -1.0000000  0.0000000  0.0000000 )


      isym = 11      90 deg rotation - cart. axis [0,1,0]        

 cryst.   s(11) = (     1          1          1      )
                  (    -1          0          0      )
                  (     0         -1          0      )

 cart.    s(11) = (  0.0000000  0.0000000  1.0000000 )
                  (  0.0000000  1.0000000  0.0000000 )
                  ( -1.0000000  0.0000000  0.0000000 )


      isym = 12      90 deg rotation - cart. axis [0,-1,0]       

 cryst.   s(12) = (     0         -1          0      )
                  (     0          0         -1      )
                  (     1          1          1      )

 cart.    s(12) = (  0.0000000  0.0000000 -1.0000000 )
                  (  0.0000000  1.0000000  0.0000000 )
                  (  1.0000000  0.0000000  0.0000000 )


      isym = 13     180 deg rotation - cart. axis [0,1,1]        

 cryst.   s(13) = (     1          1          1      )
                  (     0         -1          0      )
                  (     0          0         -1      )

 cart.    s(13) = ( -1.0000000  0.0000000  0.0000000 )
                  (  0.0000000  0.0000000  1.0000000 )
                  (  0.0000000  1.0000000  0.0000000 )


      isym = 14     180 deg rotation - cart. axis [0,1,-1]       

 cryst.   s(14) = (    -1          0          0      )
                  (     0          0         -1      )
                  (     0         -1          0      )

 cart.    s(14) = ( -1.0000000  0.0000000  0.0000000 )
                  (  0.0000000  0.0000000 -1.0000000 )
                  (  0.0000000 -1.0000000  0.0000000 )


      isym = 15      90 deg rotation - cart. axis [-1,0,0]       

 cryst.   s(15) = (     0         -1          0      )
                  (     1          1          1      )
                  (    -1          0          0      )

 cart.    s(15) = (  1.0000000  0.0000000  0.0000000 )
                  (  0.0000000  0.0000000  1.0000000 )
                  (  0.0000000 -1.0000000  0.0000000 )


      isym = 16      90 deg rotation - cart. axis [1,0,0]        

 cryst.   s(16) = (     0          0         -1      )
                  (    -1          0          0      )
                  (     1          1          1      )

 cart.    s(16) = (  1.0000000  0.0000000  0.0000000 )
                  (  0.0000000  0.0000000 -1.0000000 )
                  (  0.0000000  1.0000000  0.0000000 )


      isym = 17     120 deg rotation - cart. axis [-1,-1,-1]     

 cryst.   s(17) = (     0          0          1      )
                  (     1          0          0      )
                  (     0          1          0      )

 cart.    s(17) = (  0.0000000  1.0000000  0.0000000 )
                  (  0.0000000  0.0000000  1.0000000 )
                  (  1.0000000  0.0000000  0.0000000 )


      isym = 18     120 deg rotation - cart. axis [-1,1,1]       

 cryst.   s(18) = (     1          0          0      )
                  (     0          0          1      )
                  (    -1         -1         -1      )

 cart.    s(18) = (  0.0000000 -1.0000000  0.0000000 )
                  (  0.0000000  0.0000000  1.0000000 )
                  ( -1.0000000  0.0000000  0.0000000 )


      isym = 19     120 deg rotation - cart. axis [1,1,-1]       

 cryst.   s(19) = (     0          1          0      )
                  (    -1         -1         -1      )
                  (     0          0          1      )

 cart.    s(19) = (  0.0000000  1.0000000  0.0000000 )
                  (  0.0000000  0.0000000 -1.0000000 )
                  ( -1.0000000  0.0000000  0.0000000 )


      isym = 20     120 deg rotation - cart. axis [1,-1,1]       

 cryst.   s(20) = (    -1         -1         -1      )
                  (     0          1          0      )
                  (     1          0          0      )

 cart.    s(20) = (  0.0000000 -1.0000000  0.0000000 )
                  (  0.0000000  0.0000000 -1.0000000 )
                  (  1.0000000  0.0000000  0.0000000 )


      isym = 21     120 deg rotation - cart. axis [1,1,1]        

 cryst.   s(21) = (     0          1          0      )
                  (     0          0          1      )
                  (     1          0          0      )

 cart.    s(21) = (  0.0000000  0.0000000  1.0000000 )
                  (  1.0000000  0.0000000  0.0000000 )
                  (  0.0000000  1.0000000  0.0000000 )


      isym = 22     120 deg rotation - cart. axis [-1,1,-1]      

 cryst.   s(22) = (     0          0          1      )
                  (     0          1          0      )
                  (    -1         -1         -1      )

 cart.    s(22) = (  0.0000000  0.0000000  1.0000000 )
                  ( -1.0000000  0.0000000  0.0000000 )
                  (  0.0000000 -1.0000000  0.0000000 )


      isym = 23     120 deg rotation - cart. axis [1,-1,-1]      

 cryst.   s(23) = (     1          0          0      )
                  (    -1         -1         -1      )
                  (     0          1          0      )

 cart.    s(23) = (  0.0000000  0.0000000 -1.0000000 )
                  ( -1.0000000  0.0000000  0.0000000 )
                  (  0.0000000  1.0000000  0.0000000 )


      isym = 24     120 deg rotation - cart. axis [-1,-1,1]      

 cryst.   s(24) = (    -1         -1         -1      )
                  (     1          0          0      )
                  (     0          0          1      )

 cart.    s(24) = (  0.0000000  0.0000000 -1.0000000 )
                  (  1.0000000  0.0000000  0.0000000 )
                  (  0.0000000 -1.0000000  0.0000000 )


      isym = 25     inversion                                    

 cryst.   s(25) = (    -1          0          0      )
                  (     0         -1          0      )
                  (     0          0         -1      )

 cart.    s(25) = ( -1.0000000  0.0000000  0.0000000 )
                  (  0.0000000 -1.0000000  0.0000000 )
                  (  0.0000000  0.0000000 -1.0000000 )


      isym = 26     inv. 180 deg rotation - cart. axis [0,0,1]   

 cryst.   s(26) = (     0         -1          0      )
                  (    -1          0          0      )
                  (     1          1          1      )

 cart.    s(26) = (  1.0000000  0.0000000  0.0000000 )
                  (  0.0000000  1.0000000  0.0000000 )
                  (  0.0000000  0.0000000 -1.0000000 )


      isym = 27     inv. 180 deg rotation - cart. axis [0,1,0]   

 cryst.   s(27) = (     0          0         -1      )
                  (     1          1          1      )
                  (    -1          0          0      )

 cart.    s(27) = (  1.0000000  0.0000000  0.0000000 )
                  (  0.0000000 -1.0000000  0.0000000 )
                  (  0.0000000  0.0000000  1.0000000 )


      isym = 28     inv. 180 deg rotation - cart. axis [1,0,0]   

 cryst.   s(28) = (     1          1          1      )
                  (     0          0         -1      )
                  (     0         -1          0      )

 cart.    s(28) = ( -1.0000000  0.0000000  0.0000000 )
                  (  0.0000000  1.0000000  0.0000000 )
                  (  0.0000000  0.0000000  1.0000000 )


      isym = 29     inv. 180 deg rotation - cart. axis [1,1,0]   

 cryst.   s(29) = (     1          0          0      )
                  (     0          1          0      )
                  (    -1         -1         -1      )

 cart.    s(29) = (  0.0000000 -1.0000000  0.0000000 )
                  ( -1.0000000  0.0000000  0.0000000 )
                  (  0.0000000  0.0000000  1.0000000 )


      isym = 30     inv. 180 deg rotation - cart. axis [1,-1,0]  

 cryst.   s(30) = (     0          1          0      )
                  (     1          0          0      )
                  (     0          0          1      )

 cart.    s(30) = (  0.0000000  1.0000000  0.0000000 )
                  (  1.0000000  0.0000000  0.0000000 )
                  (  0.0000000  0.0000000  1.0000000 )


      isym = 31     inv.  90 deg rotation - cart. axis [0,0,-1]  

 cryst.   s(31) = (    -1         -1         -1      )
                  (     0          0          1      )
                  (     1          0          0      )

 cart.    s(31) = (  0.0000000 -1.0000000  0.0000000 )
                  (  1.0000000  0.0000000  0.0000000 )
                  (  0.0000000  0.0000000 -1.0000000 )


      isym = 32     inv.  90 deg rotation - cart. axis [0,0,1]   

 cryst.   s(32) = (     0          0          1      )
                  (    -1         -1         -1      )
                  (     0          1          0      )

 cart.    s(32) = (  0.0000000  1.0000000  0.0000000 )
                  ( -1.0000000  0.0000000  0.0000000 )
                  (  0.0000000  0.0000000 -1.0000000 )


      isym = 33     inv. 180 deg rotation - cart. axis [1,0,1]   

 cryst.   s(33) = (     1          0          0      )
                  (    -1         -1         -1      )
                  (     0          0          1      )

 cart.    s(33) = (  0.0000000  0.0000000 -1.0000000 )
                  (  0.0000000  1.0000000  0.0000000 )
                  ( -1.0000000  0.0000000  0.0000000 )


      isym = 34     inv. 180 deg rotation - cart. axis [-1,0,1]  

 cryst.   s(34) = (     0          0          1      )
                  (     0          1          0      )
                  (     1          0          0      )

 cart.    s(34) = (  0.0000000  0.0000000  1.0000000 )
                  (  0.0000000  1.0000000  0.0000000 )
                  (  1.0000000  0.0000000  0.0000000 )


      isym = 35     inv.  90 deg rotation - cart. axis [0,1,0]   

 cryst.   s(35) = (    -1         -1         -1      )
                  (     1          0          0      )
                  (     0          1          0      )

 cart.    s(35) = (  0.0000000  0.0000000 -1.0000000 )
                  (  0.0000000 -1.0000000  0.0000000 )
                  (  1.0000000  0.0000000  0.0000000 )


      isym = 36     inv.  90 deg rotation - cart. axis [0,-1,0]  

 cryst.   s(36) = (     0          1          0      )
                  (     0          0          1      )
                  (    -1         -1         -1      )

 cart.    s(36) = (  0.0000000  0.0000000  1.0000000 )
                  (  0.0000000 -1.0000000  0.0000000 )
                  ( -1.0000000  0.0000000  0.0000000 )


      isym = 37     inv. 180 deg rotation - cart. axis [0,1,1]   

 cryst.   s(37) = (    -1         -1         -1      )
                  (     0          1          0      )
                  (     0          0          1      )

 cart.    s(37) = (  1.0000000  0.0000000  0.0000000 )
                  (  0.0000000  0.0000000 -1.0000000 )
                  (  0.0000000 -1.0000000  0.0000000 )


      isym = 38     inv. 180 deg rotation - cart. axis [0,1,-1]  

 cryst.   s(38) = (     1          0          0      )
                  (     0          0          1      )
                  (     0          1          0      )

 cart.    s(38) = (  1.0000000  0.0000000  0.0000000 )
                  (  0.0000000  0.0000000  1.0000000 )
                  (  0.0000000  1.0000000  0.0000000 )


      isym = 39     inv.  90 deg rotation - cart. axis [-1,0,0]  

 cryst.   s(39) = (     0          1          0      )
                  (    -1         -1         -1      )
                  (     1          0          0      )

 cart.    s(39) = ( -1.0000000  0.0000000  0.0000000 )
                  (  0.0000000  0.0000000 -1.0000000 )
                  (  0.0000000  1.0000000  0.0000000 )


      isym = 40     inv.  90 deg rotation - cart. axis [1,0,0]   

 cryst.   s(40) = (     0          0          1      )
                  (     1          0          0      )
                  (    -1         -1         -1      )

 cart.    s(40) = ( -1.0000000  0.0000000  0.0000000 )
                  (  0.0000000  0.0000000  1.0000000 )
                  (  0.0000000 -1.0000000  0.0000000 )


      isym = 41     inv. 120 deg rotation - cart. axis [-1,-1,-1]

 cryst.   s(41) = (     0          0         -1      )
                  (    -1          0          0      )
                  (     0         -1          0      )

 cart.    s(41) = (  0.0000000 -1.0000000  0.0000000 )
                  (  0.0000000  0.0000000 -1.0000000 )
                  ( -1.0000000  0.0000000  0.0000000 )


      isym = 42     inv. 120 deg rotation - cart. axis [-1,1,1]  

 cryst.   s(42) = (    -1          0          0      )
                  (     0          0         -1      )
                  (     1          1          1      )

 cart.    s(42) = (  0.0000000  1.0000000  0.0000000 )
                  (  0.0000000  0.0000000 -1.0000000 )
                  (  1.0000000  0.0000000  0.0000000 )


      isym = 43     inv. 120 deg rotation - cart. axis [1,1,-1]  

 cryst.   s(43) = (     0         -1          0      )
                  (     1          1          1      )
                  (     0          0         -1      )

 cart.    s(43) = (  0.0000000 -1.0000000  0.0000000 )
                  (  0.0000000  0.0000000  1.0000000 )
                  (  1.0000000  0.0000000  0.0000000 )


      isym = 44     inv. 120 deg rotation - cart. axis [1,-1,1]  

 cryst.   s(44) = (     1          1          1      )
                  (     0         -1          0      )
                  (    -1          0          0      )

 cart.    s(44) = (  0.0000000  1.0000000  0.0000000 )
                  (  0.0000000  0.0000000  1.0000000 )
                  ( -1.0000000  0.0000000  0.0000000 )


      isym = 45     inv. 120 deg rotation - cart. axis [1,1,1]   

 cryst.   s(45) = (     0         -1          0      )
                  (     0          0         -1      )
                  (    -1          0          0      )

 cart.    s(45) = (  0.0000000  0.0000000 -1.0000000 )
                  ( -1.0000000  0.0000000  0.0000000 )
                  (  0.0000000 -1.0000000  0.0000000 )


      isym = 46     inv. 120 deg rotation - cart. axis [-1,1,-1] 

 cryst.   s(46) = (     0          0         -1      )
                  (     0         -1          0      )
                  (     1          1          1      )

 cart.    s(46) = (  0.0000000  0.0000000 -1.0000000 )
                  (  1.0000000  0.0000000  0.0000000 )
                  (  0.0000000  1.0000000  0.0000000 )


      isym = 47     inv. 120 deg rotation - cart. axis [1,-1,-1] 

 cryst.   s(47) = (    -1          0          0      )
                  (     1          1          1      )
                  (     0         -1          0      )

 cart.    s(47) = (  0.0000000  0.0000000  1.0000000 )
                  (  1.0000000  0.0000000  0.0000000 )
                  (  0.0000000 -1.0000000  0.0000000 )


      isym = 48     inv. 120 deg rotation - cart. axis [-1,-1,1] 

 cryst.   s(48) = (     1          1          1      )
                  (    -1          0          0      )
                  (     0          0         -1      )

 cart.    s(48) = (  0.0000000  0.0000000  1.0000000 )
                  ( -1.0000000  0.0000000  0.0000000 )
                  (  0.0000000  1.0000000  0.0000000 )


   Cartesian axes

     site n.     atom                  positions (alat units)
         1           Bi  tau(   1) = (   0.0000000   0.0000000   0.0000000  )

   Crystallographic axes

     site n.     atom                  positions (cryst. coord.)
         1           Bi  tau(   1) = (  0.0000000  0.0000000  0.0000000  )

     number of k points=    50  gaussian smearing, width (Ry)=  0.0010
                       cart. coord. in units 2pi/alat
        k(    1) = (   0.0000000   0.0000000   0.0000000), wk =   0.0400000
        k(    2) = (   0.0000000   0.0618590   0.0000000), wk =   0.0400000
        k(    3) = (   0.0000000   0.1237179   0.0000000), wk =   0.0400000
        k(    4) = (   0.0000000   0.1855769   0.0000000), wk =   0.0400000
        k(    5) = (   0.0000000   0.2474358   0.0000000), wk =   0.0400000
        k(    6) = (   0.0000000   0.3092948   0.0000000), wk =   0.0400000
        k(    7) = (   0.0000000   0.3711537   0.0000000), wk =   0.0400000
        k(    8) = (   0.0000000   0.4330127   0.0000000), wk =   0.0400000
        k(    9) = (   0.0000000   0.4948717   0.0000000), wk =   0.0400000
        k(   10) = (   0.0000000   0.5567306   0.0000000), wk =   0.0400000
        k(   11) = (   0.0000000   0.6185896   0.0000000), wk =   0.0400000
        k(   12) = (   0.0000000   0.6804485   0.0000000), wk =   0.0400000
        k(   13) = (   0.0000000   0.7423075   0.0000000), wk =   0.0400000
        k(   14) = (   0.0000000   0.8041664   0.0000000), wk =   0.0400000
        k(   15) = (   0.0000000   0.8660254   0.0000000), wk =   0.0400000
        k(   16) = (   0.0433013   0.8227241   0.0000000), wk =   0.0400000
        k(   17) = (   0.0866025   0.7794229   0.0000000), wk =   0.0400000
        k(   18) = (   0.1299038   0.7361216   0.0000000), wk =   0.0400000
        k(   19) = (   0.1732051   0.6928203   0.0000000), wk =   0.0400000
        k(   20) = (   0.2165064   0.6495191   0.0000000), wk =   0.0400000
        k(   21) = (   0.2598076   0.6062178   0.0000000), wk =   0.0400000
        k(   22) = (   0.3031089   0.5629165   0.0000000), wk =   0.0400000
        k(   23) = (   0.3464102   0.5196152   0.0000000), wk =   0.0400000
        k(   24) = (   0.3897114   0.4763140   0.0000000), wk =   0.0400000
        k(   25) = (   0.4330127   0.4330127   0.0000000), wk =   0.0400000
        k(   26) = (   0.3936479   0.3936479   0.0000000), wk =   0.0400000
        k(   27) = (   0.3542831   0.3542831   0.0000000), wk =   0.0400000
        k(   28) = (   0.3149183   0.3149183   0.0000000), wk =   0.0400000
        k(   29) = (   0.2755535   0.2755535   0.0000000), wk =   0.0400000
        k(   30) = (   0.2361887   0.2361887   0.0000000), wk =   0.0400000
        k(   31) = (   0.1968240   0.1968240   0.0000000), wk =   0.0400000
        k(   32) = (   0.1574592   0.1574592   0.0000000), wk =   0.0400000
        k(   33) = (   0.1180944   0.1180944   0.0000000), wk =   0.0400000
        k(   34) = (   0.0787296   0.0787296   0.0000000), wk =   0.0400000
        k(   35) = (   0.0393648   0.0393648   0.0000000), wk =   0.0400000
        k(   36) = (   0.0000000   0.0000000   0.0000000), wk =   0.0400000
        k(   37) = (   0.0309295   0.0309295   0.0309295), wk =   0.0400000
        k(   38) = (   0.0618590   0.0618590   0.0618590), wk =   0.0400000
        k(   39) = (   0.0927884   0.0927884   0.0927884), wk =   0.0400000
        k(   40) = (   0.1237179   0.1237179   0.1237179), wk =   0.0400000
        k(   41) = (   0.1546474   0.1546474   0.1546474), wk =   0.0400000
        k(   42) = (   0.1855769   0.1855769   0.1855769), wk =   0.0400000
        k(   43) = (   0.2165064   0.2165064   0.2165064), wk =   0.0400000
        k(   44) = (   0.2474358   0.2474358   0.2474358), wk =   0.0400000
        k(   45) = (   0.2783653   0.2783653   0.2783653), wk =   0.0400000
        k(   46) = (   0.3092948   0.3092948   0.3092948), wk =   0.0400000
        k(   47) = (   0.3402243   0.3402243   0.3402243), wk =   0.0400000
        k(   48) = (   0.3711537   0.3711537   0.3711537), wk =   0.0400000
        k(   49) = (   0.4020832   0.4020832   0.4020832), wk =   0.0400000
        k(   50) = (   0.4330127   0.4330127   0.4330127), wk =   0.0400000

                       cryst. coord.
        k(    1) = (   0.0000000   0.0000000   0.0000000), wk =   0.0400000
        k(    2) = (   0.0357143  -0.0357143   0.0357143), wk =   0.0400000
        k(    3) = (   0.0714286  -0.0714286   0.0714286), wk =   0.0400000
        k(    4) = (   0.1071429  -0.1071429   0.1071429), wk =   0.0400000
        k(    5) = (   0.1428571  -0.1428571   0.1428571), wk =   0.0400000
        k(    6) = (   0.1785714  -0.1785714   0.1785714), wk =   0.0400000
        k(    7) = (   0.2142857  -0.2142857   0.2142857), wk =   0.0400000
        k(    8) = (   0.2500000  -0.2500000   0.2500000), wk =   0.0400000
        k(    9) = (   0.2857143  -0.2857143   0.2857143), wk =   0.0400000
        k(   10) = (   0.3214286  -0.3214286   0.3214286), wk =   0.0400000
        k(   11) = (   0.3571429  -0.3571429   0.3571429), wk =   0.0400000
        k(   12) = (   0.3928571  -0.3928571   0.3928571), wk =   0.0400000
        k(   13) = (   0.4285714  -0.4285714   0.4285714), wk =   0.0400000
        k(   14) = (   0.4642857  -0.4642857   0.4642857), wk =   0.0400000
        k(   15) = (   0.5000000  -0.5000000   0.5000000), wk =   0.0400000
        k(   16) = (   0.4500000  -0.4500000   0.5000000), wk =   0.0400000
        k(   17) = (   0.4000000  -0.4000000   0.5000000), wk =   0.0400000
        k(   18) = (   0.3500000  -0.3500000   0.5000000), wk =   0.0400000
        k(   19) = (   0.3000000  -0.3000000   0.5000000), wk =   0.0400000
        k(   20) = (   0.2500000  -0.2500000   0.5000000), wk =   0.0400000
        k(   21) = (   0.2000000  -0.2000000   0.5000000), wk =   0.0400000
        k(   22) = (   0.1500000  -0.1500000   0.5000000), wk =   0.0400000
        k(   23) = (   0.1000000  -0.1000000   0.5000000), wk =   0.0400000
        k(   24) = (   0.0500000  -0.0500000   0.5000000), wk =   0.0400000
        k(   25) = (   0.0000000   0.0000000   0.5000000), wk =   0.0400000
        k(   26) = (   0.0000000   0.0000000   0.4545455), wk =   0.0400000
        k(   27) = (   0.0000000   0.0000000   0.4090909), wk =   0.0400000
        k(   28) = (   0.0000000   0.0000000   0.3636364), wk =   0.0400000
        k(   29) = (   0.0000000   0.0000000   0.3181818), wk =   0.0400000
        k(   30) = (   0.0000000   0.0000000   0.2727273), wk =   0.0400000
        k(   31) = (   0.0000000   0.0000000   0.2272727), wk =   0.0400000
        k(   32) = (   0.0000000   0.0000000   0.1818182), wk =   0.0400000
        k(   33) = (   0.0000000   0.0000000   0.1363636), wk =   0.0400000
        k(   34) = (   0.0000000   0.0000000   0.0909091), wk =   0.0400000
        k(   35) = (   0.0000000   0.0000000   0.0454545), wk =   0.0400000
        k(   36) = (   0.0000000   0.0000000   0.0000000), wk =   0.0400000
        k(   37) = (   0.0178571   0.0178571   0.0178571), wk =   0.0400000
        k(   38) = (   0.0357143   0.0357143   0.0357143), wk =   0.0400000
        k(   39) = (   0.0535714   0.0535714   0.0535714), wk =   0.0400000
        k(   40) = (   0.0714286   0.0714286   0.0714286), wk =   0.0400000
        k(   41) = (   0.0892857   0.0892857   0.0892857), wk =   0.0400000
        k(   42) = (   0.1071429   0.1071429   0.1071429), wk =   0.0400000
        k(   43) = (   0.1250000   0.1250000   0.1250000), wk =   0.0400000
        k(   44) = (   0.1428571   0.1428571   0.1428571), wk =   0.0400000
        k(   45) = (   0.1607143   0.1607143   0.1607143), wk =   0.0400000
        k(   46) = (   0.1785714   0.1785714   0.1785714), wk =   0.0400000
        k(   47) = (   0.1964286   0.1964286   0.1964286), wk =   0.0400000
        k(   48) = (   0.2142857   0.2142857   0.2142857), wk =   0.0400000
        k(   49) = (   0.2321429   0.2321429   0.2321429), wk =   0.0400000
        k(   50) = (   0.2500000   0.2500000   0.2500000), wk =   0.0400000

     Dense  grid:    10149 G-vectors     FFT dimensions: (  30,  30,  30)

     Smooth grid:     7155 G-vectors     FFT dimensions: (  27,  27,  27)

     Estimated max dynamical RAM per process >      13.23Mb

     Check: negative/imaginary core charge=   -0.000010    0.000000

     The potential is recalculated from file :
     ./pwscf.save/charge-density.dat


     negative rho (up, down):  4.495E-02 0.000E+00
     Starting wfc are    9 randomized atomic wfcs +    3 random wfc

     Band Structure Calculation
     Davidson diagonalization with overlap

     Computing kpt #:     1
     total cpu time spent up to now is        1.0 secs

     Computing kpt #:     2
     total cpu time spent up to now is        1.5 secs

     Computing kpt #:     3
     total cpu time spent up to now is        1.9 secs

     Computing kpt #:     4
     total cpu time spent up to now is        2.4 secs

     Computing kpt #:     5
     total cpu time spent up to now is        2.7 secs

     Computing kpt #:     6
     total cpu time spent up to now is        3.1 secs

     Computing kpt #:     7
     total cpu time spent up to now is        3.4 secs

     Computing kpt #:     8
     total cpu time spent up to now is        3.8 secs

     Computing kpt #:     9
     total cpu time spent up to now is        4.1 secs

     Computing kpt #:    10
     total cpu time spent up to now is        4.4 secs

     Computing kpt #:    11
     total cpu time spent up to now is        4.8 secs

     Computing kpt #:    12
     total cpu time spent up to now is        5.3 secs

     Computing kpt #:    13
     total cpu time spent up to now is        5.7 secs

     Computing kpt #:    14
     total cpu time spent up to now is        6.1 secs

     Computing kpt #:    15
     total cpu time spent up to now is        6.4 secs

     Computing kpt #:    16
     total cpu time spent up to now is        6.8 secs

     Computing kpt #:    17
     total cpu time spent up to now is        7.2 secs

     Computing kpt #:    18
     total cpu time spent up to now is        7.6 secs

     Computing kpt #:    19
     total cpu time spent up to now is        7.9 secs

     Computing kpt #:    20
     total cpu time spent up to now is        8.2 secs

     Computing kpt #:    21
     total cpu time spent up to now is        8.6 secs

     Computing kpt #:    22
     total cpu time spent up to now is        8.9 secs

     Computing kpt #:    23
     total cpu time spent up to now is        9.2 secs

     Computing kpt #:    24
     total cpu time spent up to now is        9.5 secs

     Computing kpt #:    25
     total cpu time spent up to now is        9.8 secs

     Computing kpt #:    26
     total cpu time spent up to now is       10.2 secs

     Computing kpt #:    27
     total cpu time spent up to now is       10.5 secs

     Computing kpt #:    28
     total cpu time spent up to now is       10.8 secs

     Computing kpt #:    29
     total cpu time spent up to now is       11.1 secs

     Computing kpt #:    30
     total cpu time spent up to now is       11.5 secs

     Computing kpt #:    31
     total cpu time spent up to now is       11.8 secs

     Computing kpt #:    32
     total cpu time spent up to now is       12.2 secs

     Computing kpt #:    33
     total cpu time spent up to now is       12.7 secs

     Computing kpt #:    34
     total cpu time spent up to now is       13.2 secs

     Computing kpt #:    35
     total cpu time spent up to now is       13.7 secs

     Computing kpt #:    36
     total cpu time spent up to now is       14.2 secs

     Computing kpt #:    37
     total cpu time spent up to now is       14.6 secs

     Computing kpt #:    38
     total cpu time spent up to now is       14.9 secs

     Computing kpt #:    39
     total cpu time spent up to now is       15.3 secs

     Computing kpt #:    40
     total cpu time spent up to now is       15.6 secs

     Computing kpt #:    41
     total cpu time spent up to now is       16.0 secs

     Computing kpt #:    42
     total cpu time spent up to now is       16.3 secs

     Computing kpt #:    43
     total cpu time spent up to now is       16.6 secs

     Computing kpt #:    44
     total cpu time spent up to now is       17.0 secs

     Computing kpt #:    45
     total cpu time spent up to now is       17.3 secs

     Computing kpt #:    46
     total cpu time spent up to now is       17.7 secs

     Computing kpt #:    47
     total cpu time spent up to now is       18.0 secs

     Computing kpt #:    48
     total cpu time spent up to now is       18.3 secs

     Computing kpt #:    49
     total cpu time spent up to now is       18.7 secs

     Computing kpt #:    50
     total cpu time spent up to now is       19.0 secs

     ethr =  6.67E-10,  avg # of iterations = 19.8

     total cpu time spent up to now is       19.0 secs

     End of band structure calculation

          k = 0.0000 0.0000 0.0000 (   935 PWs)   bands (ev):

   -11.4795 -11.4795 -11.4795 -11.3583 -11.3583  -1.8485  16.5566  16.5566
    16.5566  20.4504  22.1702  22.1702

          k = 0.0000 0.0619 0.0000 (   939 PWs)   bands (ev):

   -11.4779 -11.4779 -11.4772 -11.3599 -11.3582  -1.8029  16.1176  16.4082
    16.4082  20.8719  21.6811  21.8649

          k = 0.0000 0.1237 0.0000 (   935 PWs)   bands (ev):

   -11.4727 -11.4727 -11.4705 -11.3647 -11.3576  -1.6666  15.1726  15.9874
    15.9874  20.8052  21.5850  21.5850

          k = 0.0000 0.1856 0.0000 (   927 PWs)   bands (ev):

   -11.4641 -11.4641 -11.4595 -11.3721 -11.3578  -1.4411  14.1135  15.3650
    15.3650  19.9134  21.5629  21.5629

          k = 0.0000 0.2474 0.0000 (   915 PWs)   bands (ev):

   -11.4522 -11.4522 -11.4451 -11.3822 -11.3592  -1.1296  13.0871  14.6301
    14.6301  19.0779  21.7751  21.7751

          k = 0.0000 0.3093 0.0000 (   907 PWs)   bands (ev):

   -11.4374 -11.4374 -11.4275 -11.3942 -11.3643  -0.7373  12.1491  13.8571
    13.8571  18.3172  22.1757  22.1757

          k = 0.0000 0.3712 0.0000 (   916 PWs)   bands (ev):

   -11.4202 -11.4202 -11.4083 -11.4079 -11.3732  -0.2724  11.3264  13.0964
    13.0964  17.6370  22.7287  22.7287

          k = 0.0000 0.4330 0.0000 (   920 PWs)   bands (ev):

   -11.4225 -11.4008 -11.4008 -11.3881 -11.3860   0.2523  10.6356  12.3802
    12.3802  17.0393  23.4089  23.4089

          k = 0.0000 0.4949 0.0000 (   912 PWs)   bands (ev):

   -11.4370 -11.4025 -11.3799 -11.3799 -11.3677   0.8178  10.0902  11.7295
    11.7295  16.5240  22.0465  24.1969

          k = 0.0000 0.5567 0.0000 (   916 PWs)   bands (ev):

   -11.4508 -11.4217 -11.3592 -11.3592 -11.3486   1.3967   9.7035  11.1590
    11.1590  16.0905  20.3675  25.0751

          k = 0.0000 0.6186 0.0000 (   908 PWs)   bands (ev):

   -11.4633 -11.4417 -11.3393 -11.3393 -11.3313   1.9524   9.4876  10.6792
    10.6792  15.7378  18.7995  25.7423

          k = 0.0000 0.6804 0.0000 (   896 PWs)   bands (ev):

   -11.4736 -11.4601 -11.3220 -11.3220 -11.3168   2.4407   9.4453  10.2981
    10.2981  15.4649  17.3950  26.2434

          k = 0.0000 0.7423 0.0000 (   888 PWs)   bands (ev):

   -11.4815 -11.4752 -11.3085 -11.3085 -11.3059   2.8184   9.5499  10.0218
    10.0218  15.2707  16.2276  26.7145

          k = 0.0000 0.8042 0.0000 (   888 PWs)   bands (ev):

   -11.4867 -11.4848 -11.2999 -11.2999 -11.2993   3.0543   9.7152   9.8543
     9.8543  15.1544  15.4155  27.0742

          k = 0.0000 0.8660 0.0000 (   904 PWs)   bands (ev):

   -11.4884 -11.4884 -11.2973 -11.2973 -11.2973   3.1340   9.7982   9.7982
     9.7982  15.1158  15.1158  27.2137

          k = 0.0433 0.8227 0.0000 (   890 PWs)   bands (ev):

   -11.4863 -11.4852 -11.3025 -11.2999 -11.2968   3.0577   9.6500   9.8531
     9.9158  15.2201  15.3454  27.0493

          k = 0.0866 0.7794 0.0000 (   902 PWs)   bands (ev):

   -11.4803 -11.4769 -11.3187 -11.3084 -11.2956   2.8501   9.2712  10.0162
    10.2439  15.5350  15.9686  26.4026

          k = 0.1299 0.7361 0.0000 (   906 PWs)   bands (ev):

   -11.4715 -11.4637 -11.3434 -11.3209 -11.2937   2.5601   8.7819  10.2823
    10.7260  16.0633  16.8654  25.3332

          k = 0.1732 0.6928 0.0000 (   908 PWs)   bands (ev):

   -11.4611 -11.4468 -11.3743 -11.3360 -11.2909   2.2383   8.2721  10.6425
    11.3050  16.8007  17.9457  24.1262

          k = 0.2165 0.6495 0.0000 (   914 PWs)   bands (ev):

   -11.4515 -11.4279 -11.4085 -11.3509 -11.2882   1.9238   7.7940  11.0827
    11.9419  17.7206  19.1564  22.8363

          k = 0.2598 0.6062 0.0000 (   918 PWs)   bands (ev):

   -11.4455 -11.4423 -11.4088 -11.3623 -11.2853   1.6430   7.3773  11.5814
    12.6169  18.7221  20.4648  21.6382

          k = 0.3031 0.5629 0.0000 (   912 PWs)   bands (ev):

   -11.4722 -11.4453 -11.3912 -11.3673 -11.2828   1.4125   7.0395  12.1044
    13.3195  19.2460  20.7490  21.1765

          k = 0.3464 0.5196 0.0000 (   918 PWs)   bands (ev):

   -11.4961 -11.4496 -11.3772 -11.3674 -11.2809   1.2424   6.7917  12.5955
    14.0295  18.6228  19.8948  22.0882

          k = 0.3897 0.4763 0.0000 (   906 PWs)   bands (ev):

   -11.5109 -11.4540 -11.3680 -11.3653 -11.2794   1.1384   6.6405  12.9662
    14.6703  17.8382  19.3061  23.3132

          k = 0.4330 0.4330 0.0000 (   886 PWs)   bands (ev):

   -11.5158 -11.4557 -11.3646 -11.3641 -11.2786   1.1034   6.5897  13.1083
    14.9786  17.4692  19.0913  23.9735

          k = 0.3936 0.3936 0.0000 (   906 PWs)   bands (ev):

   -11.5154 -11.4552 -11.3653 -11.3648 -11.2831   0.9867   6.7853  13.1566
    15.0074  17.5055  19.1190  23.8392

          k = 0.3543 0.3543 0.0000 (   912 PWs)   bands (ev):

   -11.5133 -11.4535 -11.3677 -11.3645 -11.2954   0.6813   7.3263  13.3001
    15.0923  17.6151  19.2026  23.5022

          k = 0.3149 0.3149 0.0000 (   908 PWs)   bands (ev):

   -11.5098 -11.4515 -11.3708 -11.3638 -11.3143   0.2756   8.1222  13.5349
    15.2290  17.7997  19.3422  23.0803

          k = 0.2756 0.2756 0.0000 (   909 PWs)   bands (ev):

   -11.5053 -11.4506 -11.3736 -11.3630 -11.3384  -0.1579   9.0960  13.8543
    15.4095  18.0622  19.5384  22.6610

          k = 0.2362 0.2362 0.0000 (   923 PWs)   bands (ev):

   -11.5005 -11.4520 -11.3747 -11.3660 -11.3623  -0.5746  10.1956  14.2478
    15.6221  18.4068  19.7916  22.2980

          k = 0.1968 0.1968 0.0000 (   921 PWs)   bands (ev):

   -11.4953 -11.4559 -11.3945 -11.3731 -11.3611  -0.9488  11.3844  14.7002
    15.8508  18.8384  20.1026  22.0263

          k = 0.1575 0.1575 0.0000 (   929 PWs)   bands (ev):

   -11.4902 -11.4619 -11.4217 -11.3697 -11.3605  -1.2662  12.6298  15.1887
    16.0753  19.3624  20.4713  21.8700

          k = 0.1181 0.1181 0.0000 (   935 PWs)   bands (ev):

   -11.4860 -11.4685 -11.4454 -11.3656 -11.3597  -1.5185  13.8921  15.6793
    16.2742  19.9811  20.8963  21.8416

          k = 0.0787 0.0787 0.0000 (   935 PWs)   bands (ev):

   -11.4825 -11.4742 -11.4639 -11.3618 -11.3590  -1.7011  15.1040  16.1200
    16.4280  20.6644  21.3712  21.7590

          k = 0.0394 0.0394 0.0000 (   941 PWs)   bands (ev):

   -11.4803 -11.4782 -11.4756 -11.3592 -11.3586  -1.8116  16.1129  16.4384
    16.5241  20.7719  21.6712  21.8655

          k = 0.0000 0.0000 0.0000 (   935 PWs)   bands (ev):

   -11.4795 -11.4795 -11.4795 -11.3583 -11.3583  -1.8485  16.5566  16.5566
    16.5566  20.4504  22.1702  22.1702

          k = 0.0309 0.0309 0.0309 (   941 PWs)   bands (ev):

   -11.4796 -11.4796 -11.4753 -11.3589 -11.3589  -1.8143  16.1233  16.4973
    16.4973  20.7564  21.7437  21.7437

          k = 0.0619 0.0619 0.0619 (   941 PWs)   bands (ev):

   -11.4798 -11.4798 -11.4627 -11.3603 -11.3603  -1.7120  15.1562  16.3030
    16.3030  21.1672  21.1672  21.2833

          k = 0.0928 0.0928 0.0928 (   935 PWs)   bands (ev):

   -11.4798 -11.4798 -11.4436 -11.3622 -11.3622  -1.5428  14.0281  15.9438
    15.9438  20.7965  20.7965  21.6818

          k = 0.1237 0.1237 0.1237 (   929 PWs)   bands (ev):

   -11.4799 -11.4799 -11.4197 -11.3642 -11.3642  -1.3090  12.8906  15.4195
    15.4195  20.6920  20.6920  21.9805

          k = 0.1546 0.1546 0.1546 (   917 PWs)   bands (ev):

   -11.4796 -11.4796 -11.3942 -11.3658 -11.3658  -1.0145  11.8065  14.7733
    14.7733  20.8299  20.8299  22.2591

          k = 0.1856 0.1856 0.1856 (   920 PWs)   bands (ev):

   -11.4788 -11.4788 -11.3703 -11.3670 -11.3670  -0.6661  10.8104  14.0625
    14.0625  21.1600  21.1600  22.5595

          k = 0.2165 0.2165 0.2165 (   926 PWs)   bands (ev):

   -11.4771 -11.4771 -11.3677 -11.3677 -11.3501  -0.2747   9.9280  13.3330
    13.3330  21.6377  21.6377  22.9034

          k = 0.2474 0.2474 0.2474 (   908 PWs)   bands (ev):

   -11.4734 -11.4734 -11.3674 -11.3674 -11.3361   0.1427   9.1848  12.6150
    12.6150  22.2302  22.2302  23.3032

          k = 0.2784 0.2784 0.2784 (   911 PWs)   bands (ev):

   -11.4682 -11.4682 -11.3670 -11.3670 -11.3300   0.5613   8.6102  11.9278
    11.9278  22.9121  22.9121  23.7675

          k = 0.3093 0.3093 0.3093 (   908 PWs)   bands (ev):

   -11.4605 -11.4605 -11.3663 -11.3663 -11.3328   0.9470   8.2395  11.2839
    11.2839  23.6601  23.6601  24.3016

          k = 0.3402 0.3402 0.3402 (   907 PWs)   bands (ev):

   -11.4509 -11.4509 -11.3654 -11.3654 -11.3441   1.2618   8.1096  10.6919
    10.6919  24.4469  24.4469  24.9060

          k = 0.3712 0.3712 0.3712 (   916 PWs)   bands (ev):

   -11.4393 -11.4393 -11.3649 -11.3649 -11.3630   1.4767   8.2461  10.1581
    10.1581  25.2307  25.2307  25.5682

          k = 0.4021 0.4021 0.4021 (   922 PWs)   bands (ev):

   -11.4265 -11.4265 -11.3867 -11.3646 -11.3646   1.5875   8.6477   9.6875
     9.6875  25.9334  25.9334  26.2183

          k = 0.4330 0.4330 0.4330 (   928 PWs)   bands (ev):

   -11.4132 -11.4132 -11.4132 -11.3646 -11.3646   1.6166   9.2837   9.2837
     9.2837  26.3915  26.3915  26.3915

     Writing output data file pwscf.save

     init_run     :      0.64s CPU      0.51s WALL (       1 calls)
     electrons    :     39.50s CPU     18.32s WALL (       1 calls)

     Called by init_run:
     wfcinit      :      0.00s CPU      0.00s WALL (       1 calls)
     wfcinit:atom :      0.02s CPU      0.03s WALL (      50 calls)
     wfcinit:wfcr :      2.95s CPU      1.26s WALL (      50 calls)
     potinit      :      0.02s CPU      0.03s WALL (       1 calls)

     Called by electrons:
     c_bands      :     39.50s CPU     18.32s WALL (       1 calls)
     v_of_rho     :      0.02s CPU      0.02s WALL (       1 calls)
     v_h          :      0.00s CPU      0.00s WALL (       1 calls)
     v_xc         :      0.02s CPU      0.02s WALL (       1 calls)
     newd         :      0.02s CPU      0.06s WALL (       1 calls)

     Called by c_bands:
     init_us_2    :      0.00s CPU      0.04s WALL (      50 calls)
     cegterg      :     36.31s CPU     16.82s WALL (      67 calls)

     Called by sum_band:

     Called by *egterg:
     h_psi        :     31.94s CPU     14.46s WALL (    1107 calls)
     s_psi        :      0.23s CPU      0.17s WALL (    1107 calls)
     g_psi        :      0.08s CPU      0.08s WALL (     990 calls)
     cdiaghg      :      3.77s CPU      1.86s WALL (    1040 calls)
     cegterg:over :      1.19s CPU      0.55s WALL (     990 calls)
     cegterg:upda :      0.84s CPU      0.47s WALL (     990 calls)
     cegterg:last :      0.48s CPU      0.25s WALL (     190 calls)

     Called by h_psi:
     h_psi:pot    :     31.89s CPU     14.40s WALL (    1107 calls)
     h_psi:calbec :      0.58s CPU      0.22s WALL (    1107 calls)
     vloc_psi     :     30.83s CPU     13.96s WALL (    1107 calls)
     add_vuspsi   :      0.48s CPU      0.20s WALL (    1107 calls)

     General routines
     calbec       :      0.58s CPU      0.21s WALL (    1107 calls)
     fft          :      0.00s CPU      0.01s WALL (      13 calls)
     ffts         :      0.00s CPU      0.00s WALL (       1 calls)
     fftw         :     29.22s CPU     13.10s WALL (   14272 calls)
     interpolate  :      0.00s CPU      0.00s WALL (       1 calls)
     davcio       :      0.00s CPU      0.00s WALL (      50 calls)

     Parallel routines
     fft_scatter  :      0.80s CPU      0.46s WALL (   14286 calls)

     PWSCF        :    40.56s CPU        19.28s WALL


   This run was terminated on:   1:24: 0  26Feb2021            

=------------------------------------------------------------------------------=
   JOB DONE.
=------------------------------------------------------------------------------=
