element =  Si
struct =  diamond
nbands =  -4
path =  LGXUG
kpts =  (8,8,8)
lattice constant a =  5.431
lattice constant b =  5.431
lattice constant c =  5.431
alpha angle =  90.0

  ___ ___ ___ _ _ _  
 |   |   |_  | | | | 
 | | | | | . | | | | 
 |__ |  _|___|_____|  1.3.1b1
 |___|_|             

User:   inukai@DESKTOP-12SE80T
Date:   Thu Feb 11 15:06:32 2021
Arch:   x86_64
Pid:    10254
Python: 3.6.9
gpaw:   /usr/lib/python3/dist-packages/gpaw
_gpaw:  /usr/lib/python3/dist-packages/_gpaw.cpython-36m-x86_64-linux-gnu.so
ase:    /home/inukai/hotcent/ase-3.19.3/ase (version 3.19.3)
numpy:  /home/inukai/.local/lib/python3.6/site-packages/numpy (version 1.19.5)
scipy:  /home/inukai/.local/lib/python3.6/site-packages/scipy (version 1.5.4)
units:  Angstrom and eV
cores:  1

Input parameters:
  kpts: [8 8 8]
  maxiter: 1500
  mixer: {backend: pulay,
          beta: 0.01,
          method: separate,
          nmaxold: 11,
          weight: 100.0}
  mode: {ecut: 400.0,
         name: pw}
  occupations: {name: fermi-dirac,
                width: 0.02}
  spinpol: True
  xc: PBE

System changes: positions, numbers, cell, pbc, initial_charges, initial_magmoms 

Initialize ...

Si-setup:
  name: Silicon
  id: ee77bee481871cc2cb65ac61239ccafa
  Z: 14
  valence: 4
  core: 10
  charge: 0.0
  file: /usr/share/gpaw-setups/Si.PBE.gz
  cutoffs: 1.06(comp), 1.86(filt), 2.06(core), lmax=2
  valence states:
                energy  radius
    3s(2.00)   -10.812   1.058
    3p(2.00)    -4.081   1.058
    *s          16.399   1.058
    *p          23.130   1.058
    *d           0.000   1.058

  Using partial waves for Si as LCAO basis

Reference energy: -15772.688500

Spin-polarized calculation.
Magnetic moment:  0.000000

Occupation numbers:
  Fermi-Dirac: width=0.0200 eV

Convergence criteria:
  Maximum total energy change: 0.0005 eV / electron
  Maximum integral of absolute density change: 0.0001 electrons
  Maximum integral of absolute eigenstate change: 4e-08 eV^2
  Maximum number of iterations: 1500

Symmetries present (total): 24

  ( 1  0  0)  ( 1  0  0)  ( 1  0 -1)  ( 1  0 -1)  ( 1 -1  0)  ( 1 -1  0)
  ( 0  1  0)  ( 0  0  1)  ( 0  1 -1)  ( 0  0 -1)  ( 0 -1  1)  ( 0 -1  0)
  ( 0  0  1)  ( 0  1  0)  ( 0  0 -1)  ( 0  1 -1)  ( 0 -1  0)  ( 0 -1  1)

  ( 0  1  0)  ( 0  1  0)  ( 0  1 -1)  ( 0  1 -1)  ( 0  0  1)  ( 0  0  1)
  ( 1  0  0)  ( 0  0  1)  ( 1  0 -1)  ( 0  0 -1)  ( 1  0  0)  ( 0  1  0)
  ( 0  0  1)  ( 1  0  0)  ( 0  0 -1)  ( 1  0 -1)  ( 0  1  0)  ( 1  0  0)

  ( 0  0 -1)  ( 0  0 -1)  ( 0 -1  1)  ( 0 -1  1)  ( 0 -1  0)  ( 0 -1  0)
  ( 1  0 -1)  ( 0  1 -1)  ( 1 -1  0)  ( 0 -1  0)  ( 1 -1  0)  ( 0 -1  1)
  ( 0  1 -1)  ( 1  0 -1)  ( 0 -1  0)  ( 1 -1  0)  ( 0 -1  1)  ( 1 -1  0)

  (-1  1  0)  (-1  1  0)  (-1  0  1)  (-1  0  1)  (-1  0  0)  (-1  0  0)
  (-1  0  1)  (-1  0  0)  (-1  1  0)  (-1  0  0)  (-1  1  0)  (-1  0  1)
  (-1  0  0)  (-1  0  1)  (-1  0  0)  (-1  1  0)  (-1  0  1)  (-1  1  0)
Note: your k-points are not as symmetric as your crystal!

512 k-points: 8 x 8 x 8 Monkhorst-Pack grid
60 k-points in the irreducible part of the Brillouin zone
       k-points in crystal coordinates                weights
   0:     0.06250000    0.06250000   -0.06250000          6/512
   1:     0.06250000    0.06250000    0.06250000          2/512
   2:     0.18750000   -0.06250000   -0.06250000          6/512
   3:     0.18750000    0.06250000   -0.18750000         12/512
   4:     0.18750000    0.06250000   -0.06250000         12/512
   5:     0.18750000    0.06250000    0.06250000          6/512
   6:     0.18750000    0.18750000   -0.18750000          6/512
   7:     0.18750000    0.18750000   -0.06250000          6/512
   8:     0.18750000    0.18750000    0.06250000          6/512
   9:     0.18750000    0.18750000    0.18750000          2/512
          ...
  59:     0.43750000    0.43750000    0.43750000          2/512

Wave functions: Plane wave expansion
  Cutoff energy: 400.000 eV
  Number of coefficients (min, max): 717, 748
  Using FFTW library
  Eigensolver: None  MatrixOperator buffer_size: default value or 
                              see value of nblock in input file
Diagonalizer layout: Serial LAPACKOrthonormalizer layout: Serial LAPACK 

Davidson(niter=1, smin=None, normalize=True) 

Densities:
  Coarse grid: 14*14*14 grid
  Fine grid: 28*28*28 grid
  Total Charge: 0.000000 

Density mixing:
  Method: separate
  Backend: pulay
  Linear mixing parameter: 0.01
  Mixing with 11 old densities
  Damping of long wave oscillations: 100 

Hamiltonian:
  XC and Coulomb potentials evaluated on a 28*28*28 grid
  Using the PBE Exchange-Correlation functional
 

Memory estimate:
  Process memory now: 927.67 MiB
  Calculator: 19.44 MiB
    Density: 2.03 MiB
      Arrays: 0.73 MiB
      Localized functions: 0.37 MiB
      Mixer: 0.92 MiB
    Hamiltonian: 0.55 MiB
      Arrays: 0.54 MiB
      XC: 0.00 MiB
      Poisson: 0.00 MiB
      vbar: 0.01 MiB
    Wavefunctions: 16.86 MiB
      Arrays psit_nG: 10.96 MiB
      Eigensolver: 0.16 MiB
      Projections: 0.38 MiB
      Projectors: 4.66 MiB
      Overlap op: 0.09 MiB
      PW-descriptor: 0.60 MiB

Total number of cores used: 1

Number of atoms: 2
Number of atomic orbitals: 8
Number of bands in calculation: 8
Bands to converge: occupied states only
Number of valence electrons: 8

... initialized

Initializing position-dependent things.

Density initialized from atomic densities
Creating initial wave functions:
  8 bands from LCAO basis set

                    
                    
                    
                    
           Si       
                    
       Si           
                    
                    
                    
                    

Positions:
   0 Si     0.000000    0.000000    0.000000
   1 Si     1.357750    1.357750    1.357750

Unit cell:
           periodic     x           y           z      points  spacing
  1. axis:    yes    0.000000    2.715500    2.715500    14     0.2240
  2. axis:    yes    2.715500    0.000000    2.715500    14     0.2240
  3. axis:    yes    2.715500    2.715500    0.000000    14     0.2240

  Lengths:   3.840297   3.840297   3.840297
  Angles:   60.000000  60.000000  60.000000

Effective grid spacing dv^(1/3) = 0.2444

                     log10-error:    total        iterations:
           time      wfs    density  energy       fermi  poisson  magmom
iter:   1  15:06:37  +1.47   +inf   -10.761553    5               +0.0000
iter:   2  15:06:39  -0.08   +inf   -10.874934    0               -0.0000
iter:   3  15:06:41  -1.13   +inf   -10.887505    0               -0.0000
iter:   4  15:06:43  -1.92  -0.79   -10.886228    0               -0.0000
iter:   5  15:06:46  -1.37  -0.79   -10.789818    10              -0.0000
iter:   6  15:06:48  -1.45  -1.14   -10.791365    10              -0.0000
iter:   7  15:06:51  -2.23  -1.61   -10.797118    2               -0.0000
iter:   8  15:06:53  -2.05  -1.53   -10.788634    4               +0.0000
iter:   9  15:06:55  -3.06  -2.11   -10.788551    0               -0.0000
iter:  10  15:06:58  -4.00  -2.68   -10.788560    0               -0.0000
iter:  11  15:07:00  -4.77  -2.71   -10.788564    0               +0.0000
iter:  12  15:07:02  -5.35  -2.72   -10.788560    0               -0.0000
iter:  13  15:07:05  -5.24  -2.70   -10.788588    0               -0.0000
iter:  14  15:07:07  -5.25  -2.94   -10.788600    0               -0.0000
iter:  15  15:07:09  -6.12  -3.53   -10.788600    0               -0.0000
iter:  16  15:07:12  -6.65  -3.54   -10.788599    0               +0.0000
iter:  17  15:07:14  -5.89  -3.34   -10.788600    0               -0.0000
iter:  18  15:07:17  -6.15  -3.85   -10.788600    0               +0.0000
iter:  19  15:07:19  -7.01  -3.89   -10.788600    0               +0.0000
iter:  20  15:07:21  -7.45  -3.99   -10.788600    0               +0.0000
iter:  21  15:07:24  -7.43  -4.22   -10.788600    0               +0.0000

Converged after 21 iterations.

Dipole moment: (-2.923164, -2.923164, -2.923164) |e|*Ang

Total magnetic moment: 0.000000
Local magnetic moments:
   0 Si -0.000000
   1 Si -0.000000

Energy contributions relative to reference atoms: (reference = -15772.688500)

Kinetic:        +15.525799
Potential:      -13.642256
External:        +0.000000
XC:             -12.646394
Entropy (-ST):   -0.000000
Local:           -0.025750
--------------------------
Free energy:    -10.788600
Extrapolated:   -10.788600

Spin contamination: 0.000000 electrons
Fermi level: 5.61899

Warning: Showing only first 2 kpts
                      Up                     Down
 Kpt  Band  Eigenvalues  Occupancy  Eigenvalues  Occupancy
  0     2      4.79009    0.01172      4.79009    0.01172
  0     3      4.95948    0.01172      4.95948    0.01172
  0     4      7.70680    0.00000      7.70680    0.00000
  0     5      8.32244    0.00000      8.32244    0.00000

  1     2      5.22571    0.00391      5.22571    0.00391
  1     3      5.22571    0.00391      5.22571    0.00391
  1     4      7.93438    0.00000      7.93438    0.00000
  1     5      7.99318    0.00000      7.99318    0.00000


Input parameters:
  convergence: {bands: all}
  eigensolver: {name: cg,
                niter: 5}
  fixdensity: True
  kpts: {npoints: 50,
         path: LGXUG}
  nbands: -4
  symmetry: off

Initialize ...

Si-setup:
  name: Silicon
  id: ee77bee481871cc2cb65ac61239ccafa
  Z: 14
  valence: 4
  core: 10
  charge: 0.0
  file: /usr/share/gpaw-setups/Si.PBE.gz
  cutoffs: 1.06(comp), 1.86(filt), 2.06(core), lmax=2
  valence states:
                energy  radius
    3s(2.00)   -10.812   1.058
    3p(2.00)    -4.081   1.058
    *s          16.399   1.058
    *p          23.130   1.058
    *d           0.000   1.058

  Using partial waves for Si as LCAO basis

Reference energy: -15772.688500

Spin-polarized calculation.
Magnetic moment:  0.000000

Occupation numbers:
  Fixed Fermi level
  Fermi-Dirac: width=0.0200 eV

Convergence criteria:
  Maximum total energy change: 0.0005 eV / electron
  Maximum integral of absolute density change: 0.0001 electrons
  Maximum integral of absolute eigenstate change: 4e-08 eV^2
  Maximum number of iterations: 1500

Symmetries present (total): 1

  ( 1  0  0)
  ( 0  1  0)
  ( 0  0  1)

50 k-points
50 k-points in the irreducible part of the Brillouin zone
       k-points in crystal coordinates                weights
   0:     0.50000000    0.50000000    0.50000000          1/50
   1:     0.45833333    0.45833333    0.45833333          1/50
   2:     0.41666667    0.41666667    0.41666667          1/50
   3:     0.37500000    0.37500000    0.37500000          1/50
   4:     0.33333333    0.33333333    0.33333333          1/50
   5:     0.29166667    0.29166667    0.29166667          1/50
   6:     0.25000000    0.25000000    0.25000000          1/50
   7:     0.20833333    0.20833333    0.20833333          1/50
   8:     0.16666667    0.16666667    0.16666667          1/50
   9:     0.12500000    0.12500000    0.12500000          1/50
          ...
  49:     0.00000000    0.00000000    0.00000000          1/50

Wave functions: Plane wave expansion
  Cutoff energy: 400.000 eV
  Number of coefficients (min, max): 709, 745
  Using FFTW library
  Eigensolver: None  MatrixOperator buffer_size: default value or 
                              see value of nblock in input file
Diagonalizer layout: Serial LAPACKOrthonormalizer layout: Serial LAPACK 

CG(niter=5, rtol=3.0e-01) 

No density mixing

Memory estimate:
  Process memory now: 1005.11 MiB
  Calculator: 16.63 MiB
    Density: 2.03 MiB
      Arrays: 0.73 MiB
      Localized functions: 0.37 MiB
      Mixer: 0.92 MiB
    Hamiltonian: 0.55 MiB
      Arrays: 0.54 MiB
      XC: 0.00 MiB
      Poisson: 0.00 MiB
      vbar: 0.01 MiB
    Wavefunctions: 14.05 MiB
      Arrays psit_nG: 9.09 MiB
      Eigensolver: 0.15 MiB
      Projections: 0.32 MiB
      Projectors: 3.88 MiB
      Overlap op: 0.09 MiB
      PW-descriptor: 0.52 MiB

Total number of cores used: 1

Number of atoms: 2
Number of atomic orbitals: 8
Number of bands in calculation: 8
Bands to converge: all
Number of valence electrons: 8

... initialized

Initializing position-dependent things.

Creating initial wave functions:
  8 bands from LCAO basis set

                    
                    
                    
                    
           Si       
                    
       Si           
                    
                    
                    
                    

Positions:
   0 Si     0.000000    0.000000    0.000000
   1 Si     1.357750    1.357750    1.357750

Unit cell:
           periodic     x           y           z      points  spacing
  1. axis:    yes    0.000000    2.715500    2.715500    14     0.2240
  2. axis:    yes    2.715500    0.000000    2.715500    14     0.2240
  3. axis:    yes    2.715500    2.715500    0.000000    14     0.2240

  Lengths:   3.840297   3.840297   3.840297
  Angles:   60.000000  60.000000  60.000000

Effective grid spacing dv^(1/3) = 0.2444

                     log10-error:    total        iterations:
           time      wfs    density  energy       fermi  poisson  magmom
iter:   1  15:07:33  +1.39           -5.529527    5               +0.0000
iter:   2  15:07:38  +0.60           -5.670493    2               +0.0000
iter:   3  15:07:44  -0.44           -5.684817    2               -0.0000
iter:   4  15:07:50  -1.19           -5.686794    2               -0.0000
iter:   5  15:07:55  -2.06           -5.687110    2               +0.0000
iter:   6  15:08:01  -2.77           -5.687167    2               -0.0000
iter:   7  15:08:08  -3.59           -5.687178    2               +0.0000
iter:   8  15:08:14  -1.43           -5.687179    2               +0.0000
iter:   9  15:08:20  -1.92           -5.687180    2               +0.0000
iter:  10  15:08:25  -2.43           -5.687180    2               +0.0000
iter:  11  15:08:28  -2.92           -5.687180    2               +0.0000
iter:  12  15:08:30  -3.48           -5.687180    2               -0.0000
iter:  13  15:08:31  -3.67           -5.687180    2               +0.0000
iter:  14  15:08:32  -3.30           -5.687180    2               +0.0000
iter:  15  15:08:33  -4.41           -5.687180    2               +0.0000
iter:  16  15:08:34  -4.98           -5.687180    2               +0.0000
iter:  17  15:08:35  -6.03           -5.687180    2               +0.0000
iter:  18  15:08:35  -5.91           -5.687180    2               +0.0000
iter:  19  15:08:36  -5.43           -5.687180    2               +0.0000
iter:  20  15:08:37  -6.68           -5.687180    2               +0.0000
iter:  21  15:08:37  -7.16           -5.687180    2               +0.0000
iter:  22  15:08:38  -7.36           -5.687180    2               +0.0000
iter:  23  15:08:39  -7.83           -5.687180    2               +0.0000

Converged after 23 iterations.

Dipole moment: (-2.923165, -2.923165, -2.923165) |e|*Ang

Total magnetic moment: 0.000000
Local magnetic moments:
   0 Si -0.000000
   1 Si -0.000000

Energy contributions relative to reference atoms: (reference = -15772.688500)

Kinetic:        +20.627183
Potential:      -13.642235
External:        +0.000000
XC:             -12.646365
Entropy (-ST):   -0.000000
Local:           -0.025764
--------------------------
Free energy:     -5.687180
Extrapolated:    -5.687180

Spin contamination: 0.000000 electrons
Fixed Fermi level: 5.61899

Warning: Showing only first 2 kpts
                      Up                     Down
 Kpt  Band  Eigenvalues  Occupancy  Eigenvalues  Occupancy
  0     2      4.11032    0.02000      4.11032    0.02000
  0     3      4.11032    0.02000      4.11032    0.02000
  0     4      6.84718    0.00000      6.84718    0.00000
  0     5      8.64505    0.00000      8.64505    0.00000

  1     2      4.12279    0.02000      4.12279    0.02000
  1     3      4.12279    0.02000      4.12279    0.02000
  1     4      6.86150    0.00000      6.86150    0.00000
  1     5      8.65938    0.00000      8.65938    0.00000


Timing:                              incl.     excl.
-----------------------------------------------------------
Hamiltonian:                         0.808     0.001   0.0% |
 Atomic:                             0.598     0.003   0.0% |
  XC Correction:                     0.595     0.595   0.5% |
 Calculate atomic Hamiltonians:      0.021     0.021   0.0% |
 Communicate:                        0.000     0.000   0.0% |
 Initialize Hamiltonian:             0.000     0.000   0.0% |
 Poisson:                            0.000     0.000   0.0% |
 XC 3D grid:                         0.187     0.187   0.1% |
LCAO initialization:                 2.943     0.041   0.0% |
 LCAO eigensolver:                   1.476     0.020   0.0% |
  Calculate projections:             0.008     0.008   0.0% |
  DenseAtomicCorrection:             0.052     0.052   0.0% |
  Distribute overlap matrix:         0.008     0.008   0.0% |
  Orbital Layouts:                   0.076     0.076   0.1% |
  Potential matrix:                  0.223     0.223   0.2% |
  Sum over cells:                    1.089     1.089   0.9% |
 LCAO to grid:                       0.677     0.677   0.5% |
 Set positions (LCAO WFS):           0.748     0.001   0.0% |
  Basic WFS set positions:           0.002     0.002   0.0% |
  Basis functions set positions:     0.000     0.000   0.0% |
  TCI: Calculate S, T, P:            0.744     0.744   0.6% |
PWDescriptor:                        0.027     0.027   0.0% |
Redistribute:                        0.000     0.000   0.0% |
SCF-cycle:                         121.223     2.930   2.3% ||
 CG:                                59.185    54.920  43.0% |----------------|
  CG: orthonormalize:                4.265     2.432   1.9% ||
   CG: overlap:                      1.042     1.042   0.8% |
   CG: overlap2:                     0.790     0.790   0.6% |
 Davidson:                          29.335    19.411  15.2% |-----|
  calc. matrices:                    6.730     6.730   5.3% |-|
  diagonalize:                       2.086     2.086   1.6% ||
  rotate_psi:                        1.109     1.109   0.9% |
 Density:                            3.484     0.001   0.0% |
  Atomic density matrices:           0.079     0.079   0.1% |
  Mix:                               0.256     0.256   0.2% |
  Multipole moments:                 0.002     0.002   0.0% |
  Pseudo density:                    3.147     2.978   2.3% ||
   Symmetrize density:               0.168     0.168   0.1% |
 Hamiltonian:                        7.138     0.013   0.0% |
  Atomic:                            5.508     0.021   0.0% |
   XC Correction:                    5.487     5.487   4.3% |-|
  Calculate atomic Hamiltonians:     0.164     0.164   0.1% |
  Communicate:                       0.000     0.000   0.0% |
  Poisson:                           0.005     0.005   0.0% |
  XC 3D grid:                        1.447     1.447   1.1% |
 Orthonormalize:                     0.559     0.018   0.0% |
  Band Layouts:                      0.013     0.004   0.0% |
   Inverse Cholesky:                 0.008     0.008   0.0% |
  calc_s_matrix:                     0.049     0.049   0.0% |
  projections:                       0.434     0.434   0.3% |
  rotate_psi:                        0.045     0.045   0.0% |
 Residuals:                          5.222     5.222   4.1% |-|
 Subspace diag:                     13.368     0.626   0.5% |
  Band Layouts:                      1.295     0.176   0.1% |
   Diagonalize:                      0.990     0.990   0.8% |
   Distribute results:               0.129     0.129   0.1% |
  calc_h_matrix:                     9.734     9.734   7.6% |--|
  rotate_psi:                        1.714     1.714   1.3% ||
Set symmetry:                        0.143     0.143   0.1% |
Other:                               2.646     2.646   2.1% ||
-----------------------------------------------------------
Total:                                       127.790 100.0%

Date: Thu Feb 11 15:08:40 2021
element =  Si
struct =  diamond
kpts =  (8,8,8)
element =  Si
configuration =  [Ne] 3s2 3p2 3d0
valence =  ['3s', '3p', '3d']
occupations =  {'3s': 2, '3p': 2, '3d': 0}
nls =  3p
rNum =  600
lmax =  d
*******************************************
Starting confinement parameter optimization
Adjustable parameters and initial values:
  Si_3d.r0 : 4.195192
  Si_3p.r0 : 4.195192
  Si_3s.r0 : 4.195192
  Si_n.r0 : 6.292788
*******************************************

OPT_VAL: 4.195191999357982   4.195191999357982   4.195191999357982   6.292787999036973
VCONF:
  Si_3d : PowerConfinement(r0=4.195192, s=2.000000)
  Si_3p : PowerConfinement(r0=4.195192, s=2.000000)
  Si_3s : PowerConfinement(r0=4.195192, s=2.000000)
  Si_n : PowerConfinement(r0=6.292788, s=2.000000)
RESIDUAL: 0.0

OPT_VAL: 4.395191999357982   4.195191999357982   4.195191999357982   6.292787999036973
VCONF:
  Si_3d : PowerConfinement(r0=4.395192, s=2.000000)
  Si_3p : PowerConfinement(r0=4.195192, s=2.000000)
  Si_3s : PowerConfinement(r0=4.195192, s=2.000000)
  Si_n : PowerConfinement(r0=6.292788, s=2.000000)
RESIDUAL: 0.0

OPT_VAL: 4.195191999357982   4.395191999357982   4.195191999357982   6.292787999036973
VCONF:
  Si_3d : PowerConfinement(r0=4.195192, s=2.000000)
  Si_3p : PowerConfinement(r0=4.395192, s=2.000000)
  Si_3s : PowerConfinement(r0=4.195192, s=2.000000)
  Si_n : PowerConfinement(r0=6.292788, s=2.000000)
RESIDUAL: 0.0

OPT_VAL: 4.195191999357982   4.195191999357982   4.395191999357982   6.292787999036973
VCONF:
  Si_3d : PowerConfinement(r0=4.195192, s=2.000000)
  Si_3p : PowerConfinement(r0=4.195192, s=2.000000)
  Si_3s : PowerConfinement(r0=4.395192, s=2.000000)
  Si_n : PowerConfinement(r0=6.292788, s=2.000000)
RESIDUAL: 0.0

OPT_VAL: 4.195191999357982   4.195191999357982   4.195191999357982   6.492787999036973
VCONF:
  Si_3d : PowerConfinement(r0=4.195192, s=2.000000)
  Si_3p : PowerConfinement(r0=4.195192, s=2.000000)
  Si_3s : PowerConfinement(r0=4.195192, s=2.000000)
  Si_n : PowerConfinement(r0=6.492788, s=2.000000)
RESIDUAL: 0.0

OPT_VAL: 4.220191999357982   4.195191999357982   4.195191999357982   6.292787999036973
VCONF:
  Si_3d : PowerConfinement(r0=4.220192, s=2.000000)
  Si_3p : PowerConfinement(r0=4.195192, s=2.000000)
  Si_3s : PowerConfinement(r0=4.195192, s=2.000000)
  Si_n : PowerConfinement(r0=6.292788, s=2.000000)
RESIDUAL: 0.0

OPT_VAL: 4.195191999357982   4.220191999357982   4.195191999357982   6.292787999036973
VCONF:
  Si_3d : PowerConfinement(r0=4.195192, s=2.000000)
  Si_3p : PowerConfinement(r0=4.220192, s=2.000000)
  Si_3s : PowerConfinement(r0=4.195192, s=2.000000)
  Si_n : PowerConfinement(r0=6.292788, s=2.000000)
RESIDUAL: 0.0

OPT_VAL: 4.195191999357982   4.195191999357982   4.220191999357982   6.292787999036973
VCONF:
  Si_3d : PowerConfinement(r0=4.195192, s=2.000000)
  Si_3p : PowerConfinement(r0=4.195192, s=2.000000)
  Si_3s : PowerConfinement(r0=4.220192, s=2.000000)
  Si_n : PowerConfinement(r0=6.292788, s=2.000000)
RESIDUAL: 0.0

OPT_VAL: 4.195191999357982   4.195191999357982   4.195191999357982   6.317787999036973
VCONF:
  Si_3d : PowerConfinement(r0=4.195192, s=2.000000)
  Si_3p : PowerConfinement(r0=4.195192, s=2.000000)
  Si_3s : PowerConfinement(r0=4.195192, s=2.000000)
  Si_n : PowerConfinement(r0=6.317788, s=2.000000)
RESIDUAL: 0.0

OPT_VAL: 4.2001919993579815   4.195191999357982   4.195191999357982   6.292787999036973
VCONF:
  Si_3d : PowerConfinement(r0=4.200192, s=2.000000)
  Si_3p : PowerConfinement(r0=4.195192, s=2.000000)
  Si_3s : PowerConfinement(r0=4.195192, s=2.000000)
  Si_n : PowerConfinement(r0=6.292788, s=2.000000)
RESIDUAL: 0.0

OPT_VAL: 4.195191999357982   4.2001919993579815   4.195191999357982   6.292787999036973
VCONF:
  Si_3d : PowerConfinement(r0=4.195192, s=2.000000)
  Si_3p : PowerConfinement(r0=4.200192, s=2.000000)
  Si_3s : PowerConfinement(r0=4.195192, s=2.000000)
  Si_n : PowerConfinement(r0=6.292788, s=2.000000)
RESIDUAL: 0.0

OPT_VAL: 4.195191999357982   4.195191999357982   4.2001919993579815   6.292787999036973
VCONF:
  Si_3d : PowerConfinement(r0=4.195192, s=2.000000)
  Si_3p : PowerConfinement(r0=4.195192, s=2.000000)
  Si_3s : PowerConfinement(r0=4.200192, s=2.000000)
  Si_n : PowerConfinement(r0=6.292788, s=2.000000)
RESIDUAL: 0.0

OPT_VAL: 4.195191999357982   4.195191999357982   4.195191999357982   6.297787999036973
VCONF:
  Si_3d : PowerConfinement(r0=4.195192, s=2.000000)
  Si_3p : PowerConfinement(r0=4.195192, s=2.000000)
  Si_3s : PowerConfinement(r0=4.195192, s=2.000000)
  Si_n : PowerConfinement(r0=6.297788, s=2.000000)
RESIDUAL: 0.0

*******************************************
Optimization finished after 13 iterations
Adjustable parameters and final values:
  Si_3d.r0 : 4.195192
  Si_3p.r0 : 4.195192
  Si_3s.r0 : 4.195192
  Si_n.r0 : 6.292788
*******************************************

VCONF:
  Si_3d : PowerConfinement(r0=4.195192, s=2.000000)
  Si_3p : PowerConfinement(r0=4.195192, s=2.000000)
  Si_3s : PowerConfinement(r0=4.195192, s=2.000000)
  Si_n : PowerConfinement(r0=6.292788, s=2.000000)
