element =  Sb
struct =  bcc
nbands =  -4
path =  GHNGP
kpts =  (8,8,8)
lattice constant a =  3.789
lattice constant b =  3.789
lattice constant c =  3.789
alpha angle =  90.0

  ___ ___ ___ _ _ _  
 |   |   |_  | | | | 
 | | | | | . | | | | 
 |__ |  _|___|_____|  1.3.1b1
 |___|_|             

User:   inukai@DESKTOP-12SE80T
Date:   Fri Feb 12 02:04:28 2021
Arch:   x86_64
Pid:    17562
Python: 3.6.9
gpaw:   /usr/lib/python3/dist-packages/gpaw
_gpaw:  /usr/lib/python3/dist-packages/_gpaw.cpython-36m-x86_64-linux-gnu.so
ase:    /home/inukai/hotcent/ase-3.19.3/ase (version 3.19.3)
numpy:  /home/inukai/.local/lib/python3.6/site-packages/numpy (version 1.19.5)
scipy:  /home/inukai/.local/lib/python3.6/site-packages/scipy (version 1.5.4)
units:  Angstrom and eV
cores:  1

Input parameters:
  kpts: [8 8 8]
  maxiter: 1500
  mixer: {backend: pulay,
          beta: 0.01,
          method: separate,
          nmaxold: 11,
          weight: 100.0}
  mode: {ecut: 400.0,
         name: pw}
  occupations: {name: fermi-dirac,
                width: 0.02}
  spinpol: True
  xc: PBE

System changes: positions, numbers, cell, pbc, initial_charges, initial_magmoms 

Initialize ...

Sb-setup:
  name: Antimony
  id: a29d01ffa3260f57ef54631fcfeccb9b
  Z: 51
  valence: 15
  core: 36
  charge: 0.0
  file: /usr/share/gpaw-setups/Sb.PBE.gz
  cutoffs: 1.15(comp), 2.23(filt), 2.23(core), lmax=2
  valence states:
                energy  radius
    5s(2.00)   -12.815   1.154
    5p(3.00)    -4.830   1.233
    4d(10.00)   -33.514   1.196
    *s          14.396   1.154
    *p          22.381   1.233
    *d          -6.303   1.196

  Using partial waves for Sb as LCAO basis

Reference energy: -176281.558248

Spin-polarized calculation.
Magnetic moment:  0.000000

Occupation numbers:
  Fermi-Dirac: width=0.0200 eV

Convergence criteria:
  Maximum total energy change: 0.0005 eV / electron
  Maximum integral of absolute density change: 0.0001 electrons
  Maximum integral of absolute eigenstate change: 4e-08 eV^2
  Maximum number of iterations: 1500

Symmetries present (total): 48

  ( 1  1  1)  ( 1  1  1)  ( 1  1  1)  ( 1  1  1)  ( 1  1  1)  ( 1  1  1)
  ( 0  0 -1)  ( 0  0 -1)  ( 0 -1  0)  ( 0 -1  0)  (-1  0  0)  (-1  0  0)
  ( 0 -1  0)  (-1  0  0)  ( 0  0 -1)  (-1  0  0)  ( 0  0 -1)  ( 0 -1  0)

  ( 1  0  0)  ( 1  0  0)  ( 1  0  0)  ( 1  0  0)  ( 1  0  0)  ( 1  0  0)
  ( 0  1  0)  ( 0  1  0)  ( 0  0  1)  ( 0  0  1)  (-1 -1 -1)  (-1 -1 -1)
  ( 0  0  1)  (-1 -1 -1)  ( 0  1  0)  (-1 -1 -1)  ( 0  1  0)  ( 0  0  1)

  ( 0  1  0)  ( 0  1  0)  ( 0  1  0)  ( 0  1  0)  ( 0  1  0)  ( 0  1  0)
  ( 1  0  0)  ( 1  0  0)  ( 0  0  1)  ( 0  0  1)  (-1 -1 -1)  (-1 -1 -1)
  ( 0  0  1)  (-1 -1 -1)  ( 1  0  0)  (-1 -1 -1)  ( 1  0  0)  ( 0  0  1)

  ( 0  0  1)  ( 0  0  1)  ( 0  0  1)  ( 0  0  1)  ( 0  0  1)  ( 0  0  1)
  ( 1  0  0)  ( 1  0  0)  ( 0  1  0)  ( 0  1  0)  (-1 -1 -1)  (-1 -1 -1)
  ( 0  1  0)  (-1 -1 -1)  ( 1  0  0)  (-1 -1 -1)  ( 1  0  0)  ( 0  1  0)

  ( 0  0 -1)  ( 0  0 -1)  ( 0  0 -1)  ( 0  0 -1)  ( 0  0 -1)  ( 0  0 -1)
  ( 1  1  1)  ( 1  1  1)  ( 0 -1  0)  ( 0 -1  0)  (-1  0  0)  (-1  0  0)
  ( 0 -1  0)  (-1  0  0)  ( 1  1  1)  (-1  0  0)  ( 1  1  1)  ( 0 -1  0)

  ( 0 -1  0)  ( 0 -1  0)  ( 0 -1  0)  ( 0 -1  0)  ( 0 -1  0)  ( 0 -1  0)
  ( 1  1  1)  ( 1  1  1)  ( 0  0 -1)  ( 0  0 -1)  (-1  0  0)  (-1  0  0)
  ( 0  0 -1)  (-1  0  0)  ( 1  1  1)  (-1  0  0)  ( 1  1  1)  ( 0  0 -1)

  (-1  0  0)  (-1  0  0)  (-1  0  0)  (-1  0  0)  (-1  0  0)  (-1  0  0)
  ( 1  1  1)  ( 1  1  1)  ( 0  0 -1)  ( 0  0 -1)  ( 0 -1  0)  ( 0 -1  0)
  ( 0  0 -1)  ( 0 -1  0)  ( 1  1  1)  ( 0 -1  0)  ( 1  1  1)  ( 0  0 -1)

  (-1 -1 -1)  (-1 -1 -1)  (-1 -1 -1)  (-1 -1 -1)  (-1 -1 -1)  (-1 -1 -1)
  ( 1  0  0)  ( 1  0  0)  ( 0  1  0)  ( 0  1  0)  ( 0  0  1)  ( 0  0  1)
  ( 0  1  0)  ( 0  0  1)  ( 1  0  0)  ( 0  0  1)  ( 1  0  0)  ( 0  1  0)

512 k-points: 8 x 8 x 8 Monkhorst-Pack grid
26 k-points in the irreducible part of the Brillouin zone
       k-points in crystal coordinates                weights
   0:     0.06250000    0.06250000   -0.06250000          6/512
   1:     0.18750000   -0.06250000   -0.06250000          8/512
   2:     0.18750000    0.06250000   -0.06250000         24/512
   3:     0.18750000    0.18750000   -0.18750000          6/512
   4:     0.31250000   -0.06250000   -0.06250000         24/512
   5:     0.31250000    0.06250000   -0.18750000         24/512
   6:     0.31250000    0.06250000   -0.06250000         24/512
   7:     0.31250000    0.18750000   -0.18750000         24/512
   8:     0.31250000    0.31250000   -0.31250000          6/512
   9:     0.31250000    0.31250000    0.18750000         12/512
          ...
  25:     0.43750000    0.43750000    0.43750000          8/512

Wave functions: Plane wave expansion
  Cutoff energy: 400.000 eV
  Number of coefficients (min, max): 478, 504
  Using FFTW library
  Eigensolver: None  MatrixOperator buffer_size: default value or 
                              see value of nblock in input file
Diagonalizer layout: Serial LAPACKOrthonormalizer layout: Serial LAPACK 

Davidson(niter=1, smin=None, normalize=True) 

Densities:
  Coarse grid: 12*12*12 grid
  Fine grid: 24*24*24 grid
  Total Charge: 0.000000 

Density mixing:
  Method: separate
  Backend: pulay
  Linear mixing parameter: 0.01
  Mixing with 11 old densities
  Damping of long wave oscillations: 100 

Hamiltonian:
  XC and Coulomb potentials evaluated on a 24*24*24 grid
  Using the PBE Exchange-Correlation functional
 

Memory estimate:
  Process memory now: 928.71 MiB
  Calculator: 7.25 MiB
    Density: 1.30 MiB
      Arrays: 0.46 MiB
      Localized functions: 0.26 MiB
      Mixer: 0.58 MiB
    Hamiltonian: 0.35 MiB
      Arrays: 0.34 MiB
      XC: 0.00 MiB
      Poisson: 0.00 MiB
      vbar: 0.01 MiB
    Wavefunctions: 5.60 MiB
      Arrays psit_nG: 3.60 MiB
      Eigensolver: 0.12 MiB
      Projections: 0.13 MiB
      Projectors: 1.47 MiB
      Overlap op: 0.07 MiB
      PW-descriptor: 0.21 MiB

Total number of cores used: 1

Number of atoms: 1
Number of atomic orbitals: 9
Number of bands in calculation: 9
Bands to converge: occupied states only
Number of valence electrons: 15

... initialized

Initializing position-dependent things.

Density initialized from atomic densities
Creating initial wave functions:
  9 bands from LCAO basis set

                
                
                
       Sb       
                
                
                
                

Positions:
   0 Sb     0.000000    0.000000    0.000000

Unit cell:
           periodic     x           y           z      points  spacing
  1. axis:    yes   -1.894500    1.894500    1.894500    12     0.2233
  2. axis:    yes    1.894500   -1.894500    1.894500    12     0.2233
  3. axis:    yes    1.894500    1.894500   -1.894500    12     0.2233

  Lengths:   3.281370   3.281370   3.281370
  Angles:  109.471221 109.471221 109.471221

Effective grid spacing dv^(1/3) = 0.2506

                     log10-error:    total        iterations:
           time      wfs    density  energy       fermi  poisson  magmom
iter:   1  02:04:31  +0.96   +inf    -3.873695    4               +0.0000
iter:   2  02:04:32  +0.46   +inf    -3.973250    30              +0.0000
iter:   3  02:04:33  -0.09   +inf    -4.008169    5               -0.0000
iter:   4  02:04:34  -0.41  -1.93    -4.020690    4               +0.0000
iter:   5  02:04:35  -0.87  -1.89    -4.027156    3               -0.0000
iter:   6  02:04:36  -0.97  -1.85    -4.023818    7               +0.0000
iter:   7  02:04:37  -1.15  -2.09    -4.025519    31              +0.0000
iter:   8  02:04:38  -1.88  -2.62    -4.026172    3               +0.0000
iter:   9  02:04:39  -2.25  -2.57    -4.026493    3               +0.0000
iter:  10  02:04:40  -1.75  -2.54    -4.024309    4               +0.0000
iter:  11  02:04:41  -1.90  -2.94    -4.023887    4               +0.0000
iter:  12  02:04:42  -3.36  -3.30    -4.023921    2               +0.0000
iter:  13  02:04:43  -4.05  -3.38    -4.023913    3               +0.0000
iter:  14  02:04:44  -4.39  -3.39    -4.023925    3               +0.0000
iter:  15  02:04:45  -3.86  -3.39    -4.023965    3               -0.0000
iter:  16  02:04:46  -3.07  -3.42    -4.024114    3               -0.0000
iter:  17  02:04:47  -2.79  -3.28    -4.023940    3               -0.0000
iter:  18  02:04:48  -5.35  -3.51    -4.023942    2               -0.0000
iter:  19  02:04:50  -3.69  -3.51    -4.023987    3               +0.0000
iter:  20  02:04:51  -3.14  -3.34    -4.023917    3               +0.0000
iter:  21  02:04:52  -5.89  -3.51    -4.023915    2               +0.0000
iter:  22  02:04:53  -4.93  -3.50    -4.023920    2               +0.0000
iter:  23  02:04:54  -5.81  -3.57    -4.023922    2               -0.0000
iter:  24  02:04:55  -3.11  -3.72    -4.023910    3               -0.0000
iter:  25  02:04:56  -4.34  -3.71    -4.023903    3               -0.0000
iter:  26  02:04:57  -5.51  -3.49    -4.023904    3               -0.0001
iter:  27  02:04:58  -3.59  -3.72    -4.023909    3               -0.0001
iter:  28  02:04:59  -5.39  -3.30    -4.023912    2               -0.0003
iter:  29  02:05:00  -3.71  -3.29    -4.023903    3               -0.0004
iter:  30  02:05:01  -5.06  -3.62    -4.023901    3               -0.0001
iter:  31  02:05:02  -4.69  -3.63    -4.023908    2               +0.0013
iter:  32  02:05:03  -5.80  -4.03    -4.023908    2               +0.0012
iter:  33  02:05:04  -4.90  -4.04    -4.023910    3               +0.0011
iter:  34  02:05:05  -6.02  -3.88    -4.023909    2               +0.0011
iter:  35  02:05:06  -5.63  -3.90    -4.023910    2               +0.0013
iter:  36  02:05:07  -4.24  -3.93    -4.023909    3               +0.0008
iter:  37  02:05:08  -5.40  -4.06    -4.023908    2               +0.0010
iter:  38  02:05:09  -4.37  -3.90    -4.023910    3               +0.0018
iter:  39  02:05:10  -4.04  -3.89    -4.023909    3               +0.0010
iter:  40  02:05:11  -4.75  -4.31    -4.023908    2               +0.0009
iter:  41  02:05:13  -5.09  -4.29    -4.023909    2               +0.0009
iter:  42  02:05:14  -4.69  -4.16    -4.023908    3               +0.0008
iter:  43  02:05:15  -4.21  -4.23    -4.023911    3               +0.0004
iter:  44  02:05:16  -4.46  -3.90    -4.023917    3               +0.0004
iter:  45  02:05:17  -4.86  -3.78    -4.023913    3               -0.0002
iter:  46  02:05:18  -3.95  -3.92    -4.023908    3               +0.0006
iter:  47  02:05:19  -6.21  -4.31    -4.023908    2               +0.0005
iter:  48  02:05:20  -4.57  -4.32    -4.023909    3               +0.0005
iter:  49  02:05:21  -5.62  -4.12    -4.023909    2               +0.0007
iter:  50  02:05:22  -5.98  -4.33    -4.023908    2               +0.0008
iter:  51  02:05:23  -5.71  -4.20    -4.023908    2               +0.0007
iter:  52  02:05:24  -5.96  -4.37    -4.023908    2               +0.0007
iter:  53  02:05:25  -6.69  -4.44    -4.023908    2               +0.0007
iter:  54  02:05:26  -6.78  -4.44    -4.023908    2               +0.0008
iter:  55  02:05:27  -5.14  -4.47    -4.023908    2               +0.0004
iter:  56  02:05:28  -6.03  -4.38    -4.023908    2               +0.0007
iter:  57  02:05:29  -5.81  -4.43    -4.023908    2               +0.0005
iter:  58  02:05:30  -6.56  -4.43    -4.023909    2               +0.0004
iter:  59  02:05:31  -6.50  -4.38    -4.023908    2               +0.0004
iter:  60  02:05:32  -6.65  -4.37    -4.023908    2               +0.0004
iter:  61  02:05:33  -7.83  -4.38    -4.023908    2               +0.0004

Converged after 61 iterations.

Dipole moment: (0.000000, -0.000000, 0.000000) |e|*Ang

Total magnetic moment: 0.000375
Local magnetic moments:
   0 Sb 0.000374

Energy contributions relative to reference atoms: (reference = -176281.558248)

Kinetic:         +2.203604
Potential:       -2.550961
External:        +0.000000
XC:              -3.906836
Entropy (-ST):   -0.003284
Local:           +0.231927
--------------------------
Free energy:     -4.025550
Extrapolated:    -4.023908

Spin contamination: 0.000021 electrons
Fermi level: 7.72645

Warning: Showing only first 2 kpts
                      Up                     Down
 Kpt  Band  Eigenvalues  Occupancy  Eigenvalues  Occupancy
  0     5     -4.64274    0.01172     -4.64249    0.01172
  0     6     12.51501    0.00000     12.51532    0.00000
  0     7     12.80066    0.00000     12.80102    0.00000
  0     8     12.80081    0.00000     12.80116    0.00000

  1     5     -4.32043    0.01562     -4.32018    0.01562
  1     6     10.48763    0.00000     10.48794    0.00000
  1     7     12.31590    0.00000     12.31621    0.00000
  1     8     12.31610    0.00000     12.31641    0.00000


Input parameters:
  convergence: {bands: all}
  eigensolver: {name: cg,
                niter: 5}
  fixdensity: True
  kpts: {npoints: 50,
         path: GHNGP}
  nbands: -4
  symmetry: off

Initialize ...

Sb-setup:
  name: Antimony
  id: a29d01ffa3260f57ef54631fcfeccb9b
  Z: 51
  valence: 15
  core: 36
  charge: 0.0
  file: /usr/share/gpaw-setups/Sb.PBE.gz
  cutoffs: 1.15(comp), 2.23(filt), 2.23(core), lmax=2
  valence states:
                energy  radius
    5s(2.00)   -12.815   1.154
    5p(3.00)    -4.830   1.233
    4d(10.00)   -33.514   1.196
    *s          14.396   1.154
    *p          22.381   1.233
    *d          -6.303   1.196

  Using partial waves for Sb as LCAO basis

Reference energy: -176281.558248

Spin-polarized calculation.
Magnetic moment:  0.000000

Occupation numbers:
  Fixed Fermi level
  Fermi-Dirac: width=0.0200 eV

Convergence criteria:
  Maximum total energy change: 0.0005 eV / electron
  Maximum integral of absolute density change: 0.0001 electrons
  Maximum integral of absolute eigenstate change: 4e-08 eV^2
  Maximum number of iterations: 1500

Symmetries present (total): 1

  ( 1  0  0)
  ( 0  1  0)
  ( 0  0  1)

50 k-points
50 k-points in the irreducible part of the Brillouin zone
       k-points in crystal coordinates                weights
   0:     0.00000000    0.00000000    0.00000000          1/50
   1:     0.03571429   -0.03571429    0.03571429          1/50
   2:     0.07142857   -0.07142857    0.07142857          1/50
   3:     0.10714286   -0.10714286    0.10714286          1/50
   4:     0.14285714   -0.14285714    0.14285714          1/50
   5:     0.17857143   -0.17857143    0.17857143          1/50
   6:     0.21428571   -0.21428571    0.21428571          1/50
   7:     0.25000000   -0.25000000    0.25000000          1/50
   8:     0.28571429   -0.28571429    0.28571429          1/50
   9:     0.32142857   -0.32142857    0.32142857          1/50
          ...
  49:     0.25000000    0.25000000    0.25000000          1/50

Wave functions: Plane wave expansion
  Cutoff energy: 400.000 eV
  Number of coefficients (min, max): 482, 531
  Using FFTW library
  Eigensolver: None  MatrixOperator buffer_size: default value or 
                              see value of nblock in input file
Diagonalizer layout: Serial LAPACKOrthonormalizer layout: Serial LAPACK 

CG(niter=5, rtol=3.0e-01) 

No density mixing

Memory estimate:
  Process memory now: 993.01 MiB
  Calculator: 14.27 MiB
    Density: 1.30 MiB
      Arrays: 0.46 MiB
      Localized functions: 0.26 MiB
      Mixer: 0.58 MiB
    Hamiltonian: 0.35 MiB
      Arrays: 0.34 MiB
      XC: 0.00 MiB
      Poisson: 0.00 MiB
      vbar: 0.01 MiB
    Wavefunctions: 12.62 MiB
      Arrays psit_nG: 8.91 MiB
      Eigensolver: 0.13 MiB
      Projections: 0.30 MiB
      Projectors: 2.84 MiB
      Overlap op: 0.09 MiB
      PW-descriptor: 0.35 MiB

Total number of cores used: 1

Number of atoms: 1
Number of atomic orbitals: 9
Number of bands in calculation: 11
Bands to converge: all
Number of valence electrons: 15

... initialized

Initializing position-dependent things.

Creating initial wave functions:
  9 bands from LCAO basis set
  2 bands from random numbers

                
                
                
       Sb       
                
                
                
                

Positions:
   0 Sb     0.000000    0.000000    0.000000

Unit cell:
           periodic     x           y           z      points  spacing
  1. axis:    yes   -1.894500    1.894500    1.894500    12     0.2233
  2. axis:    yes    1.894500   -1.894500    1.894500    12     0.2233
  3. axis:    yes    1.894500    1.894500   -1.894500    12     0.2233

  Lengths:   3.281370   3.281370   3.281370
  Angles:  109.471221 109.471221 109.471221

Effective grid spacing dv^(1/3) = 0.2506

                     log10-error:    total        iterations:
           time      wfs    density  energy       fermi  poisson  magmom
iter:   1  02:05:43  +3.55           -2.745263    31              +0.0139
iter:   2  02:05:50  +2.53           -2.883883    33              -0.0013
iter:   3  02:05:56  +1.85           -2.901175    32              +0.0005
iter:   4  02:06:03  +1.17           -2.905713    31              +0.0002
iter:   5  02:06:10  +0.44           -2.905893    32              +0.0002
iter:   6  02:06:16  -0.19           -2.905904    33              +0.0002
iter:   7  02:06:23  -0.51           -2.905906    31              +0.0002
iter:   8  02:06:30  -0.97           -2.905906    33              +0.0002
iter:   9  02:06:35  -1.52           -2.905906    32              +0.0002
iter:  10  02:06:39  -2.09           -2.905906    32              +0.0002
iter:  11  02:06:42  -2.51           -2.905906    33              +0.0002
iter:  12  02:06:45  -3.32           -2.905906    32              +0.0002
iter:  13  02:06:48  -3.82           -2.905906    32              +0.0002
iter:  14  02:06:49  -3.90           -2.905906    32              +0.0002
iter:  15  02:06:51  -4.02           -2.905906    32              +0.0002
iter:  16  02:06:53  -4.71           -2.905906    32              +0.0002
iter:  17  02:06:54  -4.68           -2.905906    32              +0.0002
iter:  18  02:06:55  -4.23           -2.905906    32              +0.0002
iter:  19  02:06:56  -5.34           -2.905906    32              +0.0002
iter:  20  02:06:57  -5.48           -2.905906    32              +0.0002
iter:  21  02:06:58  -5.18           -2.905906    32              +0.0002
iter:  22  02:06:59  -5.65           -2.905906    32              +0.0002
iter:  23  02:07:00  -5.79           -2.905906    32              +0.0002
iter:  24  02:07:02  -5.96           -2.905906    32              +0.0002
iter:  25  02:07:03  -5.88           -2.905906    32              +0.0002
iter:  26  02:07:04  -5.93           -2.905906    32              +0.0002
iter:  27  02:07:05  -5.61           -2.905906    32              +0.0002
iter:  28  02:07:06  -5.86           -2.905906    32              +0.0002
iter:  29  02:07:07  -5.85           -2.905906    32              +0.0002
iter:  30  02:07:08  -6.04           -2.905906    32              +0.0002
iter:  31  02:07:09  -5.56           -2.905906    32              +0.0002
iter:  32  02:07:10  -6.00           -2.905906    32              +0.0002
iter:  33  02:07:11  -6.06           -2.905906    32              +0.0002
iter:  34  02:07:12  -5.17           -2.905906    32              +0.0002
iter:  35  02:07:13  -5.89           -2.905906    32              +0.0002
iter:  36  02:07:14  -5.85           -2.905906    32              +0.0002
iter:  37  02:07:15  -5.87           -2.905906    32              +0.0002
iter:  38  02:07:16  -5.78           -2.905906    32              +0.0002
iter:  39  02:07:17  -5.65           -2.905906    32              +0.0002
iter:  40  02:07:17  -5.56           -2.905906    32              +0.0002
iter:  41  02:07:18  -4.73           -2.905906    32              +0.0002
iter:  42  02:07:19  -5.44           -2.905906    32              +0.0002
iter:  43  02:07:20  -5.95           -2.905906    32              +0.0002
iter:  44  02:07:21  -5.87           -2.905906    32              +0.0002
iter:  45  02:07:22  -6.05           -2.905906    32              +0.0002
iter:  46  02:07:23  -5.89           -2.905906    32              +0.0002
iter:  47  02:07:24  -6.00           -2.905906    32              +0.0002
iter:  48  02:07:25  -5.61           -2.905906    32              +0.0002
iter:  49  02:07:26  -5.85           -2.905906    32              +0.0002
iter:  50  02:07:27  -6.02           -2.905906    32              +0.0002
iter:  51  02:07:28  -5.62           -2.905906    32              +0.0002
iter:  52  02:07:29  -5.77           -2.905906    32              +0.0002
iter:  53  02:07:30  -6.07           -2.905906    32              +0.0002
iter:  54  02:07:31  -5.81           -2.905906    32              +0.0002
iter:  55  02:07:32  -5.52           -2.905906    32              +0.0002
iter:  56  02:07:33  -5.88           -2.905906    32              +0.0002
iter:  57  02:07:34  -6.06           -2.905906    32              +0.0002
iter:  58  02:07:35  -5.92           -2.905906    32              +0.0002
iter:  59  02:07:36  -6.05           -2.905906    32              +0.0002
iter:  60  02:07:37  -5.87           -2.905906    32              +0.0002
iter:  61  02:07:38  -5.95           -2.905906    32              +0.0002
iter:  62  02:07:38  -5.90           -2.905906    32              +0.0002
iter:  63  02:07:39  -6.02           -2.905906    32              +0.0002
iter:  64  02:07:40  -5.87           -2.905906    32              +0.0002
iter:  65  02:07:41  -6.06           -2.905906    32              +0.0002
iter:  66  02:07:42  -5.95           -2.905906    32              +0.0002
iter:  67  02:07:43  -6.09           -2.905906    32              +0.0002
iter:  68  02:07:44  -5.95           -2.905906    32              +0.0002
iter:  69  02:07:45  -6.10           -2.905906    32              +0.0002
iter:  70  02:07:46  -5.93           -2.905906    32              +0.0002
iter:  71  02:07:47  -6.09           -2.905906    32              +0.0002
iter:  72  02:07:48  -5.97           -2.905906    32              +0.0002
iter:  73  02:07:49  -5.80           -2.905906    32              +0.0002
iter:  74  02:07:50  -5.74           -2.905906    32              +0.0002
iter:  75  02:07:51  -6.05           -2.905906    32              +0.0002
iter:  76  02:07:52  -5.96           -2.905906    32              +0.0002
iter:  77  02:07:53  -6.06           -2.905906    32              +0.0002
iter:  78  02:07:54  -5.85           -2.905906    32              +0.0002
iter:  79  02:07:55  -6.05           -2.905906    32              +0.0002
iter:  80  02:07:56  -5.91           -2.905906    32              +0.0002
iter:  81  02:07:57  -6.06           -2.905906    32              +0.0002
iter:  82  02:07:58  -5.98           -2.905906    32              +0.0002
iter:  83  02:07:59  -5.96           -2.905906    32              +0.0002
iter:  84  02:08:00  -5.80           -2.905906    32              +0.0002
iter:  85  02:08:01  -6.14           -2.905906    32              +0.0002
iter:  86  02:08:02  -5.81           -2.905906    32              +0.0002
iter:  87  02:08:03  -6.09           -2.905906    32              +0.0002
iter:  88  02:08:04  -5.95           -2.905906    32              +0.0002
iter:  89  02:08:04  -6.12           -2.905906    32              +0.0002
iter:  90  02:08:05  -5.93           -2.905906    32              +0.0002
iter:  91  02:08:06  -5.90           -2.905906    32              +0.0002
iter:  92  02:08:07  -5.92           -2.905906    32              +0.0002
iter:  93  02:08:08  -5.78           -2.905906    32              +0.0002
iter:  94  02:08:09  -5.92           -2.905906    32              +0.0002
iter:  95  02:08:10  -5.30           -2.905906    32              +0.0002
iter:  96  02:08:11  -5.72           -2.905906    32              +0.0002
iter:  97  02:08:12  -6.14           -2.905906    32              +0.0002
iter:  98  02:08:13  -5.90           -2.905906    32              +0.0002
iter:  99  02:08:14  -6.21           -2.905906    32              +0.0002
iter: 100  02:08:15  -5.79           -2.905906    32              +0.0002
iter: 101  02:08:16  -6.04           -2.905906    32              +0.0002
iter: 102  02:08:17  -6.02           -2.905906    32              +0.0002
iter: 103  02:08:18  -5.70           -2.905906    32              +0.0002
iter: 104  02:08:19  -5.84           -2.905906    32              +0.0002
iter: 105  02:08:20  -6.16           -2.905906    32              +0.0002
iter: 106  02:08:21  -4.86           -2.905906    32              +0.0002
iter: 107  02:08:22  -5.06           -2.905906    32              +0.0002
iter: 108  02:08:23  -5.58           -2.905906    32              +0.0002
iter: 109  02:08:24  -6.17           -2.905906    32              +0.0002
iter: 110  02:08:25  -6.15           -2.905906    32              +0.0002
iter: 111  02:08:26  -5.90           -2.905906    32              +0.0002
iter: 112  02:08:27  -5.93           -2.905906    32              +0.0002
iter: 113  02:08:28  -6.15           -2.905906    32              +0.0002
iter: 114  02:08:29  -6.10           -2.905906    32              +0.0002
iter: 115  02:08:29  -6.24           -2.905906    32              +0.0002
iter: 116  02:08:30  -6.14           -2.905906    32              +0.0002
iter: 117  02:08:31  -6.26           -2.905906    32              +0.0002
iter: 118  02:08:32  -5.31           -2.905906    32              +0.0002
iter: 119  02:08:33  -5.95           -2.905906    32              +0.0002
iter: 120  02:08:34  -6.07           -2.905906    32              +0.0002
iter: 121  02:08:35  -6.30           -2.905906    32              +0.0002
iter: 122  02:08:36  -6.12           -2.905906    32              +0.0002
iter: 123  02:08:37  -6.31           -2.905906    32              +0.0002
iter: 124  02:08:38  -5.92           -2.905906    32              +0.0002
iter: 125  02:08:39  -6.29           -2.905906    32              +0.0002
iter: 126  02:08:40  -6.11           -2.905906    32              +0.0002
iter: 127  02:08:41  -6.32           -2.905906    32              +0.0002
iter: 128  02:08:42  -6.09           -2.905906    32              +0.0002
iter: 129  02:08:43  -5.76           -2.905906    32              +0.0002
iter: 130  02:08:44  -6.04           -2.905906    32              +0.0002
iter: 131  02:08:45  -6.15           -2.905906    32              +0.0002
iter: 132  02:08:46  -6.10           -2.905906    32              +0.0002
iter: 133  02:08:47  -6.29           -2.905906    32              +0.0002
iter: 134  02:08:48  -6.17           -2.905906    32              +0.0002
iter: 135  02:08:49  -6.21           -2.905906    32              +0.0002
iter: 136  02:08:50  -6.15           -2.905906    32              +0.0002
iter: 137  02:08:51  -6.36           -2.905906    32              +0.0002
iter: 138  02:08:52  -6.17           -2.905906    32              +0.0002
iter: 139  02:08:53  -5.99           -2.905906    32              +0.0002
iter: 140  02:08:54  -6.12           -2.905906    32              +0.0002
iter: 141  02:08:55  -6.24           -2.905906    32              +0.0002
iter: 142  02:08:56  -5.85           -2.905906    32              +0.0002
iter: 143  02:08:57  -5.98           -2.905906    32              +0.0002
iter: 144  02:08:58  -6.22           -2.905906    32              +0.0002
iter: 145  02:08:59  -6.40           -2.905906    32              +0.0002
iter: 146  02:09:00  -6.24           -2.905906    32              +0.0002
iter: 147  02:09:01  -6.34           -2.905906    32              +0.0002
iter: 148  02:09:02  -6.16           -2.905906    32              +0.0002
iter: 149  02:09:03  -6.39           -2.905906    32              +0.0002
iter: 150  02:09:04  -6.27           -2.905906    32              +0.0002
iter: 151  02:09:05  -6.42           -2.905906    32              +0.0002
iter: 152  02:09:06  -6.27           -2.905906    32              +0.0002
iter: 153  02:09:07  -6.44           -2.905906    32              +0.0002
iter: 154  02:09:07  -6.28           -2.905906    32              +0.0002
iter: 155  02:09:08  -6.44           -2.905906    32              +0.0002
iter: 156  02:09:09  -6.22           -2.905906    32              +0.0002
iter: 157  02:09:10  -6.36           -2.905906    32              +0.0002
iter: 158  02:09:11  -6.32           -2.905906    32              +0.0002
iter: 159  02:09:12  -6.47           -2.905906    32              +0.0002
iter: 160  02:09:13  -6.30           -2.905906    32              +0.0002
iter: 161  02:09:14  -6.47           -2.905906    32              +0.0002
iter: 162  02:09:15  -6.32           -2.905906    32              +0.0002
iter: 163  02:09:16  -6.09           -2.905906    32              +0.0002
iter: 164  02:09:17  -6.13           -2.905906    32              +0.0002
iter: 165  02:09:18  -6.47           -2.905906    32              +0.0002
iter: 166  02:09:19  -6.34           -2.905906    32              +0.0002
iter: 167  02:09:20  -6.52           -2.905906    32              +0.0002
iter: 168  02:09:21  -6.33           -2.905906    32              +0.0002
iter: 169  02:09:22  -6.50           -2.905906    32              +0.0002
iter: 170  02:09:23  -6.29           -2.905906    32              +0.0002
iter: 171  02:09:24  -6.40           -2.905906    32              +0.0002
iter: 172  02:09:25  -6.38           -2.905906    32              +0.0002
iter: 173  02:09:26  -6.54           -2.905906    32              +0.0002
iter: 174  02:09:27  -6.35           -2.905906    32              +0.0002
iter: 175  02:09:28  -6.26           -2.905906    32              +0.0002
iter: 176  02:09:29  -6.39           -2.905906    32              +0.0002
iter: 177  02:09:30  -6.57           -2.905906    32              +0.0002
iter: 178  02:09:31  -6.42           -2.905906    32              +0.0002
iter: 179  02:09:32  -6.53           -2.905906    32              +0.0002
iter: 180  02:09:33  -6.29           -2.905906    32              +0.0002
iter: 181  02:09:34  -4.50           -2.905906    32              +0.0002
iter: 182  02:09:35  -5.12           -2.905906    32              +0.0002
iter: 183  02:09:36  -6.30           -2.905906    32              +0.0002
iter: 184  02:09:37  -6.42           -2.905906    32              +0.0002
iter: 185  02:09:38  -6.57           -2.905906    32              +0.0002
iter: 186  02:09:38  -6.16           -2.905906    32              +0.0002
iter: 187  02:09:39  -6.42           -2.905906    32              +0.0002
iter: 188  02:09:40  -6.41           -2.905906    32              +0.0002
iter: 189  02:09:41  -6.63           -2.905906    32              +0.0002
iter: 190  02:09:42  -6.46           -2.905906    32              +0.0002
iter: 191  02:09:43  -6.63           -2.905906    32              +0.0002
iter: 192  02:09:44  -6.50           -2.905906    32              +0.0002
iter: 193  02:09:45  -6.62           -2.905906    32              +0.0002
iter: 194  02:09:46  -6.35           -2.905906    32              +0.0002
iter: 195  02:09:47  -6.64           -2.905906    32              +0.0002
iter: 196  02:09:48  -6.52           -2.905906    32              +0.0002
iter: 197  02:09:49  -6.67           -2.905906    32              +0.0002
iter: 198  02:09:50  -6.46           -2.905906    32              +0.0002
iter: 199  02:09:51  -6.67           -2.905906    32              +0.0002
iter: 200  02:09:52  -6.53           -2.905906    32              +0.0002
iter: 201  02:09:53  -6.65           -2.905906    32              +0.0002
iter: 202  02:09:54  -6.55           -2.905906    32              +0.0002
iter: 203  02:09:55  -6.69           -2.905906    32              +0.0002
iter: 204  02:09:56  -6.57           -2.905906    32              +0.0002
iter: 205  02:09:57  -6.70           -2.905906    32              +0.0002
iter: 206  02:09:58  -6.57           -2.905906    32              +0.0002
iter: 207  02:09:59  -6.72           -2.905906    32              +0.0002
iter: 208  02:10:00  -6.57           -2.905906    32              +0.0002
iter: 209  02:10:01  -6.74           -2.905906    32              +0.0002
iter: 210  02:10:02  -6.58           -2.905906    32              +0.0002
iter: 211  02:10:03  -6.75           -2.905906    32              +0.0002
iter: 212  02:10:04  -6.51           -2.905906    32              +0.0002
iter: 213  02:10:05  -6.42           -2.905906    32              +0.0002
iter: 214  02:10:06  -6.13           -2.905906    32              +0.0002
iter: 215  02:10:07  -6.17           -2.905906    32              +0.0002
iter: 216  02:10:08  -6.63           -2.905906    32              +0.0002
iter: 217  02:10:08  -6.52           -2.905906    32              +0.0002
iter: 218  02:10:09  -6.23           -2.905906    32              +0.0002
iter: 219  02:10:10  -6.65           -2.905906    32              +0.0002
iter: 220  02:10:11  -6.65           -2.905906    32              +0.0002
iter: 221  02:10:12  -6.77           -2.905906    32              +0.0002
iter: 222  02:10:13  -6.66           -2.905906    32              +0.0002
iter: 223  02:10:14  -6.62           -2.905906    32              +0.0002
iter: 224  02:10:15  -6.45           -2.905906    32              +0.0002
iter: 225  02:10:16  -6.80           -2.905906    32              +0.0002
iter: 226  02:10:17  -6.58           -2.905906    32              +0.0002
iter: 227  02:10:18  -6.79           -2.905906    32              +0.0002
iter: 228  02:10:19  -6.65           -2.905906    32              +0.0002
iter: 229  02:10:20  -6.70           -2.905906    32              +0.0002
iter: 230  02:10:21  -6.65           -2.905906    32              +0.0002
iter: 231  02:10:22  -6.51           -2.905906    32              +0.0002
iter: 232  02:10:23  -6.68           -2.905906    32              +0.0002
iter: 233  02:10:24  -6.83           -2.905906    32              +0.0002
iter: 234  02:10:25  -6.70           -2.905906    32              +0.0002
iter: 235  02:10:26  -6.85           -2.905906    32              +0.0002
iter: 236  02:10:27  -6.63           -2.905906    32              +0.0002
iter: 237  02:10:28  -6.79           -2.905906    32              +0.0002
iter: 238  02:10:29  -6.72           -2.905906    32              +0.0002
iter: 239  02:10:30  -6.48           -2.905906    32              +0.0002
iter: 240  02:10:31  -6.73           -2.905906    32              +0.0002
iter: 241  02:10:32  -6.88           -2.905906    32              +0.0002
iter: 242  02:10:33  -6.72           -2.905906    32              +0.0002
iter: 243  02:10:34  -6.88           -2.905906    32              +0.0002
iter: 244  02:10:35  -6.76           -2.905906    32              +0.0002
iter: 245  02:10:36  -6.86           -2.905906    32              +0.0002
iter: 246  02:10:37  -6.59           -2.905906    32              +0.0002
iter: 247  02:10:38  -6.89           -2.905906    32              +0.0002
iter: 248  02:10:39  -6.78           -2.905906    32              +0.0002
iter: 249  02:10:40  -6.91           -2.905906    32              +0.0002
iter: 250  02:10:41  -6.79           -2.905906    32              +0.0002
iter: 251  02:10:42  -6.83           -2.905906    32              +0.0002
iter: 252  02:10:42  -6.78           -2.905906    32              +0.0002
iter: 253  02:10:43  -5.30           -2.905906    32              +0.0002
iter: 254  02:10:44  -5.86           -2.905906    32              +0.0002
iter: 255  02:10:45  -6.36           -2.905906    32              +0.0002
iter: 256  02:10:46  -6.75           -2.905906    32              +0.0002
iter: 257  02:10:47  -6.46           -2.905906    32              +0.0002
iter: 258  02:10:48  -6.64           -2.905906    32              +0.0002
iter: 259  02:10:49  -6.92           -2.905906    32              +0.0002
iter: 260  02:10:50  -6.72           -2.905906    32              +0.0002
iter: 261  02:10:51  -6.85           -2.905906    32              +0.0002
iter: 262  02:10:52  -6.83           -2.905906    32              +0.0002
iter: 263  02:10:53  -6.96           -2.905906    32              +0.0002
iter: 264  02:10:54  -6.75           -2.905906    32              +0.0002
iter: 265  02:10:55  -6.96           -2.905906    32              +0.0002
iter: 266  02:10:56  -6.76           -2.905906    32              +0.0002
iter: 267  02:10:57  -6.97           -2.905906    32              +0.0002
iter: 268  02:10:58  -6.82           -2.905906    32              +0.0002
iter: 269  02:10:59  -6.98           -2.905906    32              +0.0002
iter: 270  02:11:00  -6.86           -2.905906    32              +0.0002
iter: 271  02:11:01  -7.00           -2.905906    32              +0.0002
iter: 272  02:11:02  -6.77           -2.905906    32              +0.0002
iter: 273  02:11:03  -6.94           -2.905906    32              +0.0002
iter: 274  02:11:04  -6.90           -2.905906    32              +0.0002
iter: 275  02:11:05  -7.03           -2.905906    32              +0.0002
iter: 276  02:11:06  -6.91           -2.905906    32              +0.0002
iter: 277  02:11:07  -7.01           -2.905906    32              +0.0002
iter: 278  02:11:08  -6.92           -2.905906    32              +0.0002
iter: 279  02:11:09  -7.03           -2.905906    32              +0.0002
iter: 280  02:11:10  -6.82           -2.905906    32              +0.0002
iter: 281  02:11:11  -7.04           -2.905906    32              +0.0002
iter: 282  02:11:12  -6.94           -2.905906    32              +0.0002
iter: 283  02:11:13  -6.87           -2.905906    32              +0.0002
iter: 284  02:11:14  -6.77           -2.905906    32              +0.0002
iter: 285  02:11:15  -6.64           -2.905906    32              +0.0002
iter: 286  02:11:16  -6.71           -2.905906    32              +0.0002
iter: 287  02:11:17  -7.05           -2.905906    32              +0.0002
iter: 288  02:11:18  -6.76           -2.905906    32              +0.0002
iter: 289  02:11:19  -6.99           -2.905906    32              +0.0002
iter: 290  02:11:20  -6.96           -2.905906    32              +0.0002
iter: 291  02:11:21  -7.09           -2.905906    32              +0.0002
iter: 292  02:11:22  -6.99           -2.905906    32              +0.0002
iter: 293  02:11:22  -7.02           -2.905906    32              +0.0002
iter: 294  02:11:23  -6.96           -2.905906    32              +0.0002
iter: 295  02:11:24  -6.97           -2.905906    32              +0.0002
iter: 296  02:11:25  -6.94           -2.905906    32              +0.0002
iter: 297  02:11:26  -7.08           -2.905906    32              +0.0002
iter: 298  02:11:27  -7.02           -2.905906    32              +0.0002
iter: 299  02:11:28  -6.69           -2.905906    32              +0.0002
iter: 300  02:11:29  -6.98           -2.905906    32              +0.0002
iter: 301  02:11:30  -7.12           -2.905906    32              +0.0002
iter: 302  02:11:31  -6.70           -2.905906    32              +0.0002
iter: 303  02:11:32  -7.13           -2.905906    32              +0.0002
iter: 304  02:11:33  -6.76           -2.905906    32              +0.0002
iter: 305  02:11:34  -6.52           -2.905906    32              +0.0002
iter: 306  02:11:35  -6.95           -2.905906    32              +0.0002
iter: 307  02:11:36  -7.04           -2.905906    32              +0.0002
iter: 308  02:11:37  -6.71           -2.905906    32              +0.0002
iter: 309  02:11:38  -7.07           -2.905906    32              +0.0002
iter: 310  02:11:39  -7.06           -2.905906    32              +0.0002
iter: 311  02:11:40  -7.02           -2.905906    32              +0.0002
iter: 312  02:11:41  -6.98           -2.905906    32              +0.0002
iter: 313  02:11:41  -7.19           -2.905906    32              +0.0002
iter: 314  02:11:42  -7.08           -2.905906    32              +0.0002
iter: 315  02:11:43  -7.13           -2.905906    32              +0.0002
iter: 316  02:11:44  -7.05           -2.905906    32              +0.0002
iter: 317  02:11:45  -7.17           -2.905906    32              +0.0002
iter: 318  02:11:46  -7.09           -2.905906    32              +0.0002
iter: 319  02:11:47  -7.20           -2.905906    32              +0.0002
iter: 320  02:11:48  -7.09           -2.905906    32              +0.0002
iter: 321  02:11:49  -7.18           -2.905906    32              +0.0002
iter: 322  02:11:50  -7.06           -2.905906    32              +0.0002
iter: 323  02:11:51  -7.20           -2.905906    32              +0.0002
iter: 324  02:11:52  -7.10           -2.905906    32              +0.0002
iter: 325  02:11:53  -7.19           -2.905906    32              +0.0002
iter: 326  02:11:54  -7.11           -2.905906    32              +0.0002
iter: 327  02:11:55  -7.24           -2.905906    32              +0.0002
iter: 328  02:11:56  -7.12           -2.905906    32              +0.0002
iter: 329  02:11:57  -7.23           -2.905906    32              +0.0002
iter: 330  02:11:58  -7.13           -2.905906    32              +0.0002
iter: 331  02:11:59  -7.24           -2.905906    32              +0.0002
iter: 332  02:12:00  -7.12           -2.905906    32              +0.0002
iter: 333  02:12:00  -7.24           -2.905906    32              +0.0002
iter: 334  02:12:01  -7.15           -2.905906    32              +0.0002
iter: 335  02:12:02  -7.24           -2.905906    32              +0.0002
iter: 336  02:12:03  -7.15           -2.905906    32              +0.0002
iter: 337  02:12:04  -7.26           -2.905906    32              +0.0002
iter: 338  02:12:05  -7.16           -2.905906    32              +0.0002
iter: 339  02:12:06  -7.27           -2.905906    32              +0.0002
iter: 340  02:12:07  -7.17           -2.905906    32              +0.0002
iter: 341  02:12:08  -7.28           -2.905906    32              +0.0002
iter: 342  02:12:09  -7.18           -2.905906    32              +0.0002
iter: 343  02:12:10  -7.28           -2.905906    32              +0.0002
iter: 344  02:12:11  -7.18           -2.905906    32              +0.0002
iter: 345  02:12:12  -7.28           -2.905906    32              +0.0002
iter: 346  02:12:13  -7.19           -2.905906    32              +0.0002
iter: 347  02:12:14  -7.28           -2.905906    32              +0.0002
iter: 348  02:12:15  -7.18           -2.905906    32              +0.0002
iter: 349  02:12:16  -7.30           -2.905906    32              +0.0002
iter: 350  02:12:17  -7.17           -2.905906    32              +0.0002
iter: 351  02:12:18  -7.28           -2.905906    32              +0.0002
iter: 352  02:12:19  -7.20           -2.905906    32              +0.0002
iter: 353  02:12:20  -7.30           -2.905906    32              +0.0002
iter: 354  02:12:21  -7.14           -2.905906    32              +0.0002
iter: 355  02:12:21  -7.27           -2.905906    32              +0.0002
iter: 356  02:12:22  -7.20           -2.905906    32              +0.0002
iter: 357  02:12:23  -7.28           -2.905906    32              +0.0002
iter: 358  02:12:24  -7.25           -2.905906    32              +0.0002
iter: 359  02:12:25  -6.88           -2.905906    32              +0.0002
iter: 360  02:12:26  -6.74           -2.905906    32              +0.0002
iter: 361  02:12:27  -7.28           -2.905906    32              +0.0002
iter: 362  02:12:28  -7.23           -2.905906    32              +0.0002
iter: 363  02:12:29  -7.23           -2.905906    32              +0.0002
iter: 364  02:12:30  -7.14           -2.905906    32              +0.0002
iter: 365  02:12:31  -7.33           -2.905906    32              +0.0002
iter: 366  02:12:32  -7.25           -2.905906    32              +0.0002
iter: 367  02:12:33  -7.32           -2.905906    32              +0.0002
iter: 368  02:12:34  -7.24           -2.905906    32              +0.0002
iter: 369  02:12:35  -7.32           -2.905906    32              +0.0002
iter: 370  02:12:36  -7.25           -2.905906    32              +0.0002
iter: 371  02:12:37  -7.35           -2.905906    32              +0.0002
iter: 372  02:12:38  -7.27           -2.905906    32              +0.0002
iter: 373  02:12:39  -7.35           -2.905906    32              +0.0002
iter: 374  02:12:39  -7.24           -2.905906    32              +0.0002
iter: 375  02:12:40  -7.40           -2.905906    32              +0.0002
iter: 376  02:12:41  -7.27           -2.905906    32              +0.0002
iter: 377  02:12:42  -7.18           -2.905906    32              +0.0002
iter: 378  02:12:43  -7.25           -2.905906    32              +0.0002
iter: 379  02:12:44  -7.40           -2.905906    32              +0.0002

Converged after 379 iterations.

Dipole moment: (0.000000, -0.000000, 0.000000) |e|*Ang

Total magnetic moment: 0.000167
Local magnetic moments:
   0 Sb 0.000374

Energy contributions relative to reference atoms: (reference = -176281.558248)

Kinetic:         +3.327012
Potential:       -2.554723
External:        +0.000000
XC:              -3.910141
Entropy (-ST):   -0.001530
Local:           +0.232712
--------------------------
Free energy:     -2.906671
Extrapolated:    -2.905906

Spin contamination: 0.000021 electrons
Fixed Fermi level: 7.72645

Warning: Showing only first 2 kpts
                      Up                     Down
 Kpt  Band  Eigenvalues  Occupancy  Eigenvalues  Occupancy
  0     5     -4.80482    0.02000     -4.80456    0.02000
  0     6     13.34024    0.00000     13.34059    0.00000
  0     7     13.34024    0.00000     13.34059    0.00000
  0     8     13.34050    0.00000     13.34085    0.00000

  1     5     -4.75181    0.02000     -4.75155    0.02000
  1     6     13.04334    0.00000     13.04367    0.00000
  1     7     13.15707    0.00000     13.15742    0.00000
  1     8     13.15713    0.00000     13.15748    0.00000


Timing:                              incl.     excl.
-----------------------------------------------------------
Hamiltonian:                         0.612     0.002   0.0% |
 Atomic:                             0.485     0.002   0.0% |
  XC Correction:                     0.483     0.483   0.1% |
 Calculate atomic Hamiltonians:      0.006     0.006   0.0% |
 Communicate:                        0.000     0.000   0.0% |
 Initialize Hamiltonian:             0.000     0.000   0.0% |
 Poisson:                            0.000     0.000   0.0% |
 XC 3D grid:                         0.119     0.119   0.0% |
LCAO initialization:                 2.079     0.117   0.0% |
 LCAO eigensolver:                   1.162     0.015   0.0% |
  Calculate projections:             0.004     0.004   0.0% |
  DenseAtomicCorrection:             0.027     0.027   0.0% |
  Distribute overlap matrix:         0.006     0.006   0.0% |
  Orbital Layouts:                   0.062     0.062   0.0% |
  Potential matrix:                  0.243     0.243   0.0% |
  Sum over cells:                    0.806     0.806   0.2% |
 LCAO to grid:                       0.442     0.442   0.1% |
 Set positions (LCAO WFS):           0.358     0.001   0.0% |
  Basic WFS set positions:           0.002     0.002   0.0% |
  Basis functions set positions:     0.000     0.000   0.0% |
  TCI: Calculate S, T, P:            0.355     0.355   0.1% |
PWDescriptor:                        0.018     0.018   0.0% |
Redistribute:                        0.000     0.000   0.0% |
SCF-cycle:                         491.379   134.142  27.0% |----------|
 CG:                               158.194   141.184  28.4% |----------|
  CG: orthonormalize:               17.010     9.682   1.9% ||
   CG: overlap:                      4.804     4.804   1.0% |
   CG: overlap2:                     2.524     2.524   0.5% |
 Davidson:                          26.768    15.752   3.2% ||
  calc. matrices:                    6.813     6.813   1.4% ||
  diagonalize:                       2.997     2.997   0.6% |
  rotate_psi:                        1.205     1.205   0.2% |
 Density:                            7.188     0.003   0.0% |
  Atomic density matrices:           0.342     0.342   0.1% |
  Mix:                               0.358     0.358   0.1% |
  Multipole moments:                 0.014     0.014   0.0% |
  Pseudo density:                    6.471     4.965   1.0% |
   Symmetrize density:               1.506     1.506   0.3% |
 Hamiltonian:                       18.611     0.037   0.0% |
  Atomic:                           15.382     0.063   0.0% |
   XC Correction:                   15.319    15.319   3.1% ||
  Calculate atomic Hamiltonians:     0.151     0.151   0.0% |
  Communicate:                       0.001     0.001   0.0% |
  Poisson:                           0.013     0.013   0.0% |
  XC 3D grid:                        3.028     3.028   0.6% |
 Orthonormalize:                     0.193     0.012   0.0% |
  Band Layouts:                      0.011     0.003   0.0% |
   Inverse Cholesky:                 0.008     0.008   0.0% |
  calc_s_matrix:                     0.031     0.031   0.0% |
  projections:                       0.109     0.109   0.0% |
  rotate_psi:                        0.030     0.030   0.0% |
 Residuals:                         37.043    37.043   7.5% |--|
 Subspace diag:                    109.240     4.931   1.0% |
  Band Layouts:                     13.368     1.403   0.3% |
   Diagonalize:                     10.951    10.951   2.2% ||
   Distribute results:               1.013     1.013   0.2% |
  calc_h_matrix:                    76.259    76.259  15.3% |-----|
  rotate_psi:                       14.683    14.683   3.0% ||
Set symmetry:                        0.099     0.099   0.0% |
Other:                               2.689     2.689   0.5% |
-----------------------------------------------------------
Total:                                       496.876 100.0%

Date: Fri Feb 12 02:12:45 2021
element =  Sb
struct =  bcc
kpts =  (8,8,8)
element =  Sb
configuration =  [Kr] 4d10 5s2 5p3
valence =  ['5s', '5p']
occupations =  {'5s': 2, '5p': 3}
nls =  5p
rNum =  600
lmax =  d
*******************************************
Starting confinement parameter optimization
Adjustable parameters and initial values:
  Sb_5p.r0 : 5.253439
  Sb_5s.r0 : 5.253439
  Sb_n.r0 : 7.880158
*******************************************

OPT_VAL: 5.25343862982666   5.25343862982666   7.88015794473999
VCONF:
  Sb_5p : PowerConfinement(r0=5.253439, s=2.000000)
  Sb_5s : PowerConfinement(r0=5.253439, s=2.000000)
  Sb_n : PowerConfinement(r0=7.880158, s=2.000000)
RESIDUAL: 0.0

OPT_VAL: 5.45343862982666   5.25343862982666   7.88015794473999
VCONF:
  Sb_5p : PowerConfinement(r0=5.453439, s=2.000000)
  Sb_5s : PowerConfinement(r0=5.253439, s=2.000000)
  Sb_n : PowerConfinement(r0=7.880158, s=2.000000)
RESIDUAL: 0.0

OPT_VAL: 5.25343862982666   5.45343862982666   7.88015794473999
VCONF:
  Sb_5p : PowerConfinement(r0=5.253439, s=2.000000)
  Sb_5s : PowerConfinement(r0=5.453439, s=2.000000)
  Sb_n : PowerConfinement(r0=7.880158, s=2.000000)
RESIDUAL: 0.0

OPT_VAL: 5.25343862982666   5.25343862982666   8.08015794473999
VCONF:
  Sb_5p : PowerConfinement(r0=5.253439, s=2.000000)
  Sb_5s : PowerConfinement(r0=5.253439, s=2.000000)
  Sb_n : PowerConfinement(r0=8.080158, s=2.000000)
RESIDUAL: 0.0

OPT_VAL: 5.278438629826661   5.25343862982666   7.88015794473999
VCONF:
  Sb_5p : PowerConfinement(r0=5.278439, s=2.000000)
  Sb_5s : PowerConfinement(r0=5.253439, s=2.000000)
  Sb_n : PowerConfinement(r0=7.880158, s=2.000000)
RESIDUAL: 0.0

OPT_VAL: 5.25343862982666   5.278438629826661   7.88015794473999
VCONF:
  Sb_5p : PowerConfinement(r0=5.253439, s=2.000000)
  Sb_5s : PowerConfinement(r0=5.278439, s=2.000000)
  Sb_n : PowerConfinement(r0=7.880158, s=2.000000)
RESIDUAL: 0.0

OPT_VAL: 5.25343862982666   5.25343862982666   7.90515794473999
VCONF:
  Sb_5p : PowerConfinement(r0=5.253439, s=2.000000)
  Sb_5s : PowerConfinement(r0=5.253439, s=2.000000)
  Sb_n : PowerConfinement(r0=7.905158, s=2.000000)
RESIDUAL: 0.0

OPT_VAL: 5.25843862982666   5.25343862982666   7.88015794473999
VCONF:
  Sb_5p : PowerConfinement(r0=5.258439, s=2.000000)
  Sb_5s : PowerConfinement(r0=5.253439, s=2.000000)
  Sb_n : PowerConfinement(r0=7.880158, s=2.000000)
RESIDUAL: 0.0

OPT_VAL: 5.25343862982666   5.25843862982666   7.88015794473999
VCONF:
  Sb_5p : PowerConfinement(r0=5.253439, s=2.000000)
  Sb_5s : PowerConfinement(r0=5.258439, s=2.000000)
  Sb_n : PowerConfinement(r0=7.880158, s=2.000000)
RESIDUAL: 0.0

OPT_VAL: 5.25343862982666   5.25343862982666   7.88515794473999
VCONF:
  Sb_5p : PowerConfinement(r0=5.253439, s=2.000000)
  Sb_5s : PowerConfinement(r0=5.253439, s=2.000000)
  Sb_n : PowerConfinement(r0=7.885158, s=2.000000)
RESIDUAL: 0.0

*******************************************
Optimization finished after 10 iterations
Adjustable parameters and final values:
  Sb_5p.r0 : 5.253439
  Sb_5s.r0 : 5.253439
  Sb_n.r0 : 7.880158
*******************************************

VCONF:
  Sb_5p : PowerConfinement(r0=5.253439, s=2.000000)
  Sb_5s : PowerConfinement(r0=5.253439, s=2.000000)
  Sb_n : PowerConfinement(r0=7.880158, s=2.000000)
