element =  Be
struct =  hcp
nbands =  -4
path =  GMKGA
kpts =  (8,8,4)
lattice constant a =  2.286
lattice constant b =  2.286
lattice constant c =  3.584
alpha angle =  90.0

  ___ ___ ___ _ _ _  
 |   |   |_  | | | | 
 | | | | | . | | | | 
 |__ |  _|___|_____|  1.3.1b1
 |___|_|             

User:   inukai@DESKTOP-12SE80T
Date:   Thu Feb 11 12:42:20 2021
Arch:   x86_64
Pid:    8325
Python: 3.6.9
gpaw:   /usr/lib/python3/dist-packages/gpaw
_gpaw:  /usr/lib/python3/dist-packages/_gpaw.cpython-36m-x86_64-linux-gnu.so
ase:    /home/inukai/hotcent/ase-3.19.3/ase (version 3.19.3)
numpy:  /home/inukai/.local/lib/python3.6/site-packages/numpy (version 1.19.5)
scipy:  /home/inukai/.local/lib/python3.6/site-packages/scipy (version 1.5.4)
units:  Angstrom and eV
cores:  1

Input parameters:
  kpts: [8 8 4]
  maxiter: 1500
  mixer: {backend: pulay,
          beta: 0.01,
          method: separate,
          nmaxold: 11,
          weight: 100.0}
  mode: {ecut: 400.0,
         name: pw}
  occupations: {name: fermi-dirac,
                width: 0.02}
  spinpol: True
  xc: PBE

System changes: positions, numbers, cell, pbc, initial_charges, initial_magmoms 

Initialize ...

Be-setup:
  name: Beryllium
  id: 05824862ae4eb59fd0e1af4fca8e65d4
  Z: 4
  valence: 2
  core: 2
  charge: 0.0
  file: /usr/share/gpaw-setups/Be.PBE.gz
  cutoffs: 0.79(comp), 1.42(filt), 1.77(core), lmax=2
  valence states:
                energy  radius
    2s(2.00)    -5.610   0.794
    2p(0.00)    -2.018   0.794
    *s          21.602   0.794

  Using partial waves for Be as LCAO basis

Reference energy: -796.369947

Spin-polarized calculation.
Magnetic moment:  0.000000

Occupation numbers:
  Fermi-Dirac: width=0.0200 eV

Convergence criteria:
  Maximum total energy change: 0.0005 eV / electron
  Maximum integral of absolute density change: 0.0001 electrons
  Maximum integral of absolute eigenstate change: 4e-08 eV^2
  Maximum number of iterations: 1500

Symmetries present (total): 12

  ( 1  1  0)  ( 1  1  0)  ( 1  0  0)  ( 1  0  0)  ( 0  1  0)  ( 0  1  0)
  ( 0 -1  0)  ( 0 -1  0)  ( 0  1  0)  ( 0  1  0)  (-1 -1  0)  (-1 -1  0)
  ( 0  0  1)  ( 0  0 -1)  ( 0  0  1)  ( 0  0 -1)  ( 0  0  1)  ( 0  0 -1)

  ( 0 -1  0)  ( 0 -1  0)  (-1  0  0)  (-1  0  0)  (-1 -1  0)  (-1 -1  0)
  (-1  0  0)  (-1  0  0)  ( 1  1  0)  ( 1  1  0)  ( 1  0  0)  ( 1  0  0)
  ( 0  0  1)  ( 0  0 -1)  ( 0  0  1)  ( 0  0 -1)  ( 0  0  1)  ( 0  0 -1)
Note: your k-points are not as symmetric as your crystal!

256 k-points: 8 x 8 x 4 Monkhorst-Pack grid
40 k-points in the irreducible part of the Brillouin zone
       k-points in crystal coordinates                weights
   0:     0.06250000   -0.06250000    0.12500000          4/256
   1:     0.06250000   -0.06250000    0.37500000          4/256
   2:     0.06250000    0.06250000    0.12500000          4/256
   3:     0.06250000    0.06250000    0.37500000          4/256
   4:     0.18750000   -0.18750000    0.12500000          4/256
   5:     0.18750000   -0.18750000    0.37500000          4/256
   6:     0.18750000   -0.06250000    0.12500000          8/256
   7:     0.18750000   -0.06250000    0.37500000          8/256
   8:     0.18750000    0.06250000    0.12500000          8/256
   9:     0.18750000    0.06250000    0.37500000          8/256
          ...
  39:     0.43750000    0.43750000    0.37500000          4/256

Wave functions: Plane wave expansion
  Cutoff energy: 400.000 eV
  Number of coefficients (min, max): 288, 303
  Using FFTW library
  Eigensolver: None  MatrixOperator buffer_size: default value or 
                              see value of nblock in input file
Diagonalizer layout: Serial LAPACKOrthonormalizer layout: Serial LAPACK 

Davidson(niter=1, smin=None, normalize=True) 

Densities:
  Coarse grid: 9*9*18 grid
  Fine grid: 18*18*36 grid
  Total Charge: 0.000000 

Density mixing:
  Method: separate
  Backend: pulay
  Linear mixing parameter: 0.01
  Mixing with 11 old densities
  Damping of long wave oscillations: 100 

Hamiltonian:
  XC and Coulomb potentials evaluated on a 18*18*36 grid
  Using the PBE Exchange-Correlation functional
 

Memory estimate:
  Process memory now: 925.98 MiB
  Calculator: 5.35 MiB
    Density: 1.07 MiB
      Arrays: 0.39 MiB
      Localized functions: 0.19 MiB
      Mixer: 0.49 MiB
    Hamiltonian: 0.29 MiB
      Arrays: 0.29 MiB
      XC: 0.00 MiB
      Poisson: 0.00 MiB
      vbar: 0.00 MiB
    Wavefunctions: 3.99 MiB
      Arrays psit_nG: 2.96 MiB
      Eigensolver: 0.07 MiB
      Projections: 0.10 MiB
      Projectors: 0.63 MiB
      Overlap op: 0.04 MiB
      PW-descriptor: 0.19 MiB

Total number of cores used: 1

Number of atoms: 2
Number of atomic orbitals: 8
Number of bands in calculation: 8
Bands to converge: occupied states only
Number of valence electrons: 4

... initialized

Initializing position-dependent things.

Density initialized from atomic densities
Creating initial wave functions:
  8 bands from LCAO basis set

                 
                 
                 
                 
        Be       
                 
       Be        
                 
                 
                 
                 

Positions:
   0 Be     0.000000    0.000000    0.000000
   1 Be     0.000000    1.319823    1.792000

Unit cell:
           periodic     x           y           z      points  spacing
  1. axis:    yes    2.286000    0.000000    0.000000     9     0.2200
  2. axis:    yes   -1.143000    1.979734    0.000000     9     0.2200
  3. axis:    yes    0.000000    0.000000    3.584000    18     0.1991

  Lengths:   2.286000   2.286000   3.584000
  Angles:   90.000000  90.000000 120.000000

Effective grid spacing dv^(1/3) = 0.2232

                     log10-error:    total        iterations:
           time      wfs    density  energy       fermi  poisson  magmom
iter:   1  12:42:24  +2.23   +inf    -7.359192    3               +0.0000
iter:   2  12:42:25  -0.02   +inf    -7.398111    3               +0.0000
iter:   3  12:42:26  -1.52   +inf    -7.399808    2               +0.0000
iter:   4  12:42:27  -2.64  -1.31    -7.399659    2               +0.0000
iter:   5  12:42:28  -2.22  -1.32    -7.398229    4               +0.0000
iter:   6  12:42:30  -2.37  -1.62    -7.402030    4               +0.0000
iter:   7  12:42:31  -3.54  -2.38    -7.402126    2               +0.0000
iter:   8  12:42:32  -4.65  -2.47    -7.402154    3               +0.0000
iter:   9  12:42:34  -5.73  -3.53    -7.402153    2               -0.0000
iter:  10  12:42:35  -7.15  -3.81    -7.402153    2               -0.0000
iter:  11  12:42:36  -7.04  -3.77    -7.402154    2               -0.0000
iter:  12  12:42:37  -8.23  -4.50    -7.402154    2               -0.0000

Converged after 12 iterations.

Dipole moment: (-1.054698, 0.608930, -0.000000) |e|*Ang

Total magnetic moment: -0.000000
Local magnetic moments:
   0 Be 0.000000
   1 Be 0.000000

Energy contributions relative to reference atoms: (reference = -796.369947)

Kinetic:         +5.611983
Potential:       -2.234070
External:        +0.000000
XC:             -10.666163
Entropy (-ST):   -0.000892
Local:           -0.113457
--------------------------
Free energy:     -7.402600
Extrapolated:    -7.402154

Spin contamination: 0.000000 electrons
Fermi level: 6.64154

Warning: Showing only first 2 kpts
                      Up                     Down
 Kpt  Band  Eigenvalues  Occupancy  Eigenvalues  Occupancy
  0     0     -3.69899    0.01562     -3.69899    0.01562
  0     1      2.34790    0.01562      2.34790    0.01562
  0     2      9.51382    0.00000      9.51382    0.00000
  0     3     22.15778    0.00000     22.15778    0.00000

  1     0     -2.61563    0.01562     -2.61563    0.01562
  1     1     -0.47644    0.01562     -0.47644    0.01562
  1     2     14.77196    0.00000     14.77196    0.00000
  1     3     21.27982    0.00000     21.27982    0.00000


Input parameters:
  convergence: {bands: all}
  eigensolver: {name: cg,
                niter: 5}
  fixdensity: True
  kpts: {npoints: 50,
         path: GMKGA}
  nbands: -4
  symmetry: off

Initialize ...

Be-setup:
  name: Beryllium
  id: 05824862ae4eb59fd0e1af4fca8e65d4
  Z: 4
  valence: 2
  core: 2
  charge: 0.0
  file: /usr/share/gpaw-setups/Be.PBE.gz
  cutoffs: 0.79(comp), 1.42(filt), 1.77(core), lmax=2
  valence states:
                energy  radius
    2s(2.00)    -5.610   0.794
    2p(0.00)    -2.018   0.794
    *s          21.602   0.794

  Using partial waves for Be as LCAO basis

Reference energy: -796.369947

Spin-polarized calculation.
Magnetic moment:  0.000000

Occupation numbers:
  Fixed Fermi level
  Fermi-Dirac: width=0.0200 eV

Convergence criteria:
  Maximum total energy change: 0.0005 eV / electron
  Maximum integral of absolute density change: 0.0001 electrons
  Maximum integral of absolute eigenstate change: 4e-08 eV^2
  Maximum number of iterations: 1500

Symmetries present (total): 1

  ( 1  0  0)
  ( 0  1  0)
  ( 0  0  1)

50 k-points
50 k-points in the irreducible part of the Brillouin zone
       k-points in crystal coordinates                weights
   0:     0.00000000    0.00000000    0.00000000          1/50
   1:     0.03571429    0.00000000    0.00000000          1/50
   2:     0.07142857    0.00000000    0.00000000          1/50
   3:     0.10714286    0.00000000    0.00000000          1/50
   4:     0.14285714    0.00000000    0.00000000          1/50
   5:     0.17857143    0.00000000    0.00000000          1/50
   6:     0.21428571    0.00000000    0.00000000          1/50
   7:     0.25000000    0.00000000    0.00000000          1/50
   8:     0.28571429    0.00000000    0.00000000          1/50
   9:     0.32142857    0.00000000    0.00000000          1/50
          ...
  49:     0.00000000    0.00000000    0.50000000          1/50

Wave functions: Plane wave expansion
  Cutoff energy: 400.000 eV
  Number of coefficients (min, max): 287, 305
  Using FFTW library
  Eigensolver: None  MatrixOperator buffer_size: default value or 
                              see value of nblock in input file
Diagonalizer layout: Serial LAPACKOrthonormalizer layout: Serial LAPACK 

CG(niter=5, rtol=3.0e-01) 

No density mixing

Memory estimate:
  Process memory now: 981.95 MiB
  Calculator: 5.34 MiB
    Density: 1.07 MiB
      Arrays: 0.39 MiB
      Localized functions: 0.19 MiB
      Mixer: 0.49 MiB
    Hamiltonian: 0.29 MiB
      Arrays: 0.29 MiB
      XC: 0.00 MiB
      Poisson: 0.00 MiB
      vbar: 0.00 MiB
    Wavefunctions: 3.98 MiB
      Arrays psit_nG: 2.79 MiB
      Eigensolver: 0.05 MiB
      Projections: 0.09 MiB
      Projectors: 0.79 MiB
      Overlap op: 0.03 MiB
      PW-descriptor: 0.22 MiB

Total number of cores used: 1

Number of atoms: 2
Number of atomic orbitals: 8
Number of bands in calculation: 6
Bands to converge: all
Number of valence electrons: 4

... initialized

Initializing position-dependent things.

Creating initial wave functions:
  6 bands from LCAO basis set

                 
                 
                 
                 
        Be       
                 
       Be        
                 
                 
                 
                 

Positions:
   0 Be     0.000000    0.000000    0.000000
   1 Be     0.000000    1.319823    1.792000

Unit cell:
           periodic     x           y           z      points  spacing
  1. axis:    yes    2.286000    0.000000    0.000000     9     0.2200
  2. axis:    yes   -1.143000    1.979734    0.000000     9     0.2200
  3. axis:    yes    0.000000    0.000000    3.584000    18     0.1991

  Lengths:   2.286000   2.286000   3.584000
  Angles:   90.000000  90.000000 120.000000

Effective grid spacing dv^(1/3) = 0.2232

                     log10-error:    total        iterations:
           time      wfs    density  energy       fermi  poisson  magmom
iter:   1  12:42:43  +1.83           -9.797332    32              -0.0000
iter:   2  12:42:46  +0.70           -9.840873    33              -0.0000
iter:   3  12:42:48  -0.36           -9.842937    29              -0.0000
iter:   4  12:42:51  -0.94           -9.843093    31              -0.0000
iter:   5  12:42:53  -1.20           -9.843107    30              -0.0000
iter:   6  12:42:56  -1.12           -9.843108    31              -0.0000
iter:   7  12:42:58  -0.77           -9.843108    32              -0.0000
iter:   8  12:43:00  -1.36           -9.843108    29              -0.0000
iter:   9  12:43:02  -3.07           -9.843108    29              -0.0000
iter:  10  12:43:03  -3.61           -9.843108    29              -0.0000
iter:  11  12:43:04  -4.52           -9.843108    29              -0.0000
iter:  12  12:43:05  -5.65           -9.843108    29              -0.0000
iter:  13  12:43:06  -6.11           -9.843108    29              -0.0000
iter:  14  12:43:07  -6.98           -9.843108    29              -0.0000
iter:  15  12:43:07  -7.36           -9.843108    29              -0.0000
iter:  16  12:43:08  -7.82           -9.843108    29              -0.0000

Converged after 16 iterations.

Dipole moment: (-1.054698, 0.608930, -0.000000) |e|*Ang

Total magnetic moment: -0.000000
Local magnetic moments:
   0 Be 0.000000
   1 Be 0.000000

Energy contributions relative to reference atoms: (reference = -796.369947)

Kinetic:         +3.171190
Potential:       -2.234074
External:        +0.000000
XC:             -10.666217
Entropy (-ST):   -0.001122
Local:           -0.113446
--------------------------
Free energy:     -9.843669
Extrapolated:    -9.843108

Spin contamination: 0.000000 electrons
Fixed Fermi level: 6.64154

Warning: Showing only first 2 kpts
                      Up                     Down
 Kpt  Band  Eigenvalues  Occupancy  Eigenvalues  Occupancy
  0     0     -3.94591    0.02000     -3.94591    0.02000
  0     1      2.96139    0.02000      2.96139    0.02000
  0     2      8.41061    0.00000      8.41061    0.00000
  0     3     22.93240    0.00000     22.93240    0.00000

  1     0     -3.90951    0.02000     -3.90951    0.02000
  1     1      3.00860    0.02000      3.00860    0.02000
  1     2      8.42187    0.00000      8.42187    0.00000
  1     3     22.62068    0.00000     22.62068    0.00000


Timing:                              incl.     excl.
-----------------------------------------------------------
Hamiltonian:                         0.575     0.001   0.0% |
 Atomic:                             0.471     0.003   0.0% |
  XC Correction:                     0.469     0.469   1.0% |
 Calculate atomic Hamiltonians:      0.009     0.009   0.0% |
 Communicate:                        0.000     0.000   0.0% |
 Initialize Hamiltonian:             0.000     0.000   0.0% |
 Poisson:                            0.000     0.000   0.0% |
 XC 3D grid:                         0.092     0.092   0.2% |
LCAO initialization:                 4.878     0.031   0.1% |
 LCAO eigensolver:                   2.816     0.018   0.0% |
  Calculate projections:             0.007     0.007   0.0% |
  DenseAtomicCorrection:             0.042     0.042   0.1% |
  Distribute overlap matrix:         0.007     0.007   0.0% |
  Orbital Layouts:                   0.061     0.061   0.1% |
  Potential matrix:                  0.563     0.563   1.1% |
  Sum over cells:                    2.118     2.118   4.3% |-|
 LCAO to grid:                       0.627     0.627   1.3% ||
 Set positions (LCAO WFS):           1.404     0.001   0.0% |
  Basic WFS set positions:           0.001     0.001   0.0% |
  Basis functions set positions:     0.000     0.000   0.0% |
  TCI: Calculate S, T, P:            1.402     1.402   2.9% ||
PWDescriptor:                        0.026     0.026   0.1% |
Redistribute:                        0.000     0.000   0.0% |
SCF-cycle:                          41.599     5.979  12.2% |----|
 CG:                                17.423    15.488  31.5% |------------|
  CG: orthonormalize:                1.936     1.132   2.3% ||
   CG: overlap:                      0.425     0.425   0.9% |
   CG: overlap2:                     0.379     0.379   0.8% |
 Davidson:                           7.418     4.179   8.5% |--|
  calc. matrices:                    2.167     2.167   4.4% |-|
  diagonalize:                       0.783     0.783   1.6% ||
  rotate_psi:                        0.290     0.290   0.6% |
 Density:                            1.183     0.000   0.0% |
  Atomic density matrices:           0.025     0.025   0.1% |
  Mix:                               0.066     0.066   0.1% |
  Multipole moments:                 0.001     0.001   0.0% |
  Pseudo density:                    1.091     1.064   2.2% ||
   Symmetrize density:               0.027     0.027   0.1% |
 Hamiltonian:                        2.567     0.006   0.0% |
  Atomic:                            2.134     0.010   0.0% |
   XC Correction:                    2.124     2.124   4.3% |-|
  Calculate atomic Hamiltonians:     0.036     0.036   0.1% |
  Communicate:                       0.000     0.000   0.0% |
  Poisson:                           0.002     0.002   0.0% |
  XC 3D grid:                        0.390     0.390   0.8% |
 Orthonormalize:                     0.198     0.013   0.0% |
  Band Layouts:                      0.009     0.003   0.0% |
   Inverse Cholesky:                 0.006     0.006   0.0% |
  calc_s_matrix:                     0.027     0.027   0.1% |
  projections:                       0.126     0.126   0.3% |
  rotate_psi:                        0.022     0.022   0.0% |
 Residuals:                          1.444     1.444   2.9% ||
 Subspace diag:                      5.387     0.306   0.6% |
  Band Layouts:                      0.572     0.086   0.2% |
   Diagonalize:                      0.421     0.421   0.9% |
   Distribute results:               0.065     0.065   0.1% |
  calc_h_matrix:                     3.950     3.950   8.0% |--|
  rotate_psi:                        0.559     0.559   1.1% |
Set symmetry:                        0.035     0.035   0.1% |
Other:                               2.044     2.044   4.2% |-|
-----------------------------------------------------------
Total:                                        49.157 100.0%

Date: Thu Feb 11 12:43:09 2021
element =  Be
struct =  hcp
kpts =  (8,8,4)
element =  Be
configuration =  [He] 2s2 2p0
valence =  ['2s', '2p']
occupations =  {'2s': 2, '2p': 0}
nls =  2s
rNum =  600
lmax =  p
*******************************************
Starting confinement parameter optimization
Adjustable parameters and initial values:
  Be_2p.r0 : 3.628274
  Be_2s.r0 : 3.628274
  Be_n.r0 : 5.442411
*******************************************

OPT_VAL: 3.6282741616069023   3.6282741616069023   5.442411242410353
VCONF:
  Be_2p : PowerConfinement(r0=3.628274, s=2.000000)
  Be_2s : PowerConfinement(r0=3.628274, s=2.000000)
  Be_n : PowerConfinement(r0=5.442411, s=2.000000)
RESIDUAL: 0.0

OPT_VAL: 3.8282741616069025   3.6282741616069023   5.442411242410353
VCONF:
  Be_2p : PowerConfinement(r0=3.828274, s=2.000000)
  Be_2s : PowerConfinement(r0=3.628274, s=2.000000)
  Be_n : PowerConfinement(r0=5.442411, s=2.000000)
RESIDUAL: 0.0

OPT_VAL: 3.6282741616069023   3.8282741616069025   5.442411242410353
VCONF:
  Be_2p : PowerConfinement(r0=3.628274, s=2.000000)
  Be_2s : PowerConfinement(r0=3.828274, s=2.000000)
  Be_n : PowerConfinement(r0=5.442411, s=2.000000)
RESIDUAL: 0.0

OPT_VAL: 3.6282741616069023   3.6282741616069023   5.642411242410353
VCONF:
  Be_2p : PowerConfinement(r0=3.628274, s=2.000000)
  Be_2s : PowerConfinement(r0=3.628274, s=2.000000)
  Be_n : PowerConfinement(r0=5.642411, s=2.000000)
RESIDUAL: 0.0

OPT_VAL: 3.653274161606902   3.6282741616069023   5.442411242410353
VCONF:
  Be_2p : PowerConfinement(r0=3.653274, s=2.000000)
  Be_2s : PowerConfinement(r0=3.628274, s=2.000000)
  Be_n : PowerConfinement(r0=5.442411, s=2.000000)
RESIDUAL: 0.0

OPT_VAL: 3.6282741616069023   3.653274161606902   5.442411242410353
VCONF:
  Be_2p : PowerConfinement(r0=3.628274, s=2.000000)
  Be_2s : PowerConfinement(r0=3.653274, s=2.000000)
  Be_n : PowerConfinement(r0=5.442411, s=2.000000)
RESIDUAL: 0.0

OPT_VAL: 3.6282741616069023   3.6282741616069023   5.467411242410353
VCONF:
  Be_2p : PowerConfinement(r0=3.628274, s=2.000000)
  Be_2s : PowerConfinement(r0=3.628274, s=2.000000)
  Be_n : PowerConfinement(r0=5.467411, s=2.000000)
RESIDUAL: 0.0

OPT_VAL: 3.633274161606902   3.6282741616069023   5.442411242410353
VCONF:
  Be_2p : PowerConfinement(r0=3.633274, s=2.000000)
  Be_2s : PowerConfinement(r0=3.628274, s=2.000000)
  Be_n : PowerConfinement(r0=5.442411, s=2.000000)
RESIDUAL: 0.0

OPT_VAL: 3.6282741616069023   3.633274161606902   5.442411242410353
VCONF:
  Be_2p : PowerConfinement(r0=3.628274, s=2.000000)
  Be_2s : PowerConfinement(r0=3.633274, s=2.000000)
  Be_n : PowerConfinement(r0=5.442411, s=2.000000)
RESIDUAL: 0.0

OPT_VAL: 3.6282741616069023   3.6282741616069023   5.447411242410353
VCONF:
  Be_2p : PowerConfinement(r0=3.628274, s=2.000000)
  Be_2s : PowerConfinement(r0=3.628274, s=2.000000)
  Be_n : PowerConfinement(r0=5.447411, s=2.000000)
RESIDUAL: 0.0

*******************************************
Optimization finished after 10 iterations
Adjustable parameters and final values:
  Be_2p.r0 : 3.628274
  Be_2s.r0 : 3.628274
  Be_n.r0 : 5.442411
*******************************************

VCONF:
  Be_2p : PowerConfinement(r0=3.628274, s=2.000000)
  Be_2s : PowerConfinement(r0=3.628274, s=2.000000)
  Be_n : PowerConfinement(r0=5.442411, s=2.000000)
