element =  Al
struct =  fcc
nbands =  -4
path =  WLGXWK
kpts =  (8,8,8)
lattice constant a =  4.049
lattice constant b =  4.049
lattice constant c =  4.049
alpha angle =  90.0

  ___ ___ ___ _ _ _  
 |   |   |_  | | | | 
 | | | | | . | | | | 
 |__ |  _|___|_____|  1.3.1b1
 |___|_|             

User:   inukai@DESKTOP-12SE80T
Date:   Thu Feb 11 14:54:37 2021
Arch:   x86_64
Pid:    9984
Python: 3.6.9
gpaw:   /usr/lib/python3/dist-packages/gpaw
_gpaw:  /usr/lib/python3/dist-packages/_gpaw.cpython-36m-x86_64-linux-gnu.so
ase:    /home/inukai/hotcent/ase-3.19.3/ase (version 3.19.3)
numpy:  /home/inukai/.local/lib/python3.6/site-packages/numpy (version 1.19.5)
scipy:  /home/inukai/.local/lib/python3.6/site-packages/scipy (version 1.5.4)
units:  Angstrom and eV
cores:  1

Input parameters:
  kpts: [8 8 8]
  maxiter: 1500
  mixer: {backend: pulay,
          beta: 0.01,
          method: separate,
          nmaxold: 11,
          weight: 100.0}
  mode: {ecut: 400.0,
         name: pw}
  occupations: {name: fermi-dirac,
                width: 0.02}
  spinpol: True
  xc: PBE

System changes: positions, numbers, cell, pbc, initial_charges, initial_magmoms 

Initialize ...

Al-setup:
  name: Aluminium
  id: 0292cae29f5d6237e50f6abdd43a7bdd
  Z: 13
  valence: 3
  core: 10
  charge: 0.0
  file: /usr/share/gpaw-setups/Al.PBE.gz
  cutoffs: 1.08(comp), 1.91(filt), 2.36(core), lmax=2
  valence states:
                energy  radius
    3s(2.00)    -7.753   1.085
    3p(1.00)    -2.712   1.085
    *s          19.459   1.085
    *p          24.499   1.085
    *d           0.000   1.085

  Using partial waves for Al as LCAO basis

Reference energy: -6603.423265

Spin-polarized calculation.
Magnetic moment:  0.000000

Occupation numbers:
  Fermi-Dirac: width=0.0200 eV

Convergence criteria:
  Maximum total energy change: 0.0005 eV / electron
  Maximum integral of absolute density change: 0.0001 electrons
  Maximum integral of absolute eigenstate change: 4e-08 eV^2
  Maximum number of iterations: 1500

Symmetries present (total): 48

  ( 1  0  0)  ( 1  0  0)  ( 1  0  0)  ( 1  0  0)  ( 1  0 -1)  ( 1  0 -1)
  ( 1  0 -1)  ( 1 -1  0)  ( 0  1  0)  ( 0  0  1)  ( 1  0  0)  ( 1 -1  0)
  ( 1 -1  0)  ( 1  0 -1)  ( 0  0  1)  ( 0  1  0)  ( 1 -1  0)  ( 1  0  0)

  ( 1  0 -1)  ( 1  0 -1)  ( 1 -1  0)  ( 1 -1  0)  ( 1 -1  0)  ( 1 -1  0)
  ( 0  1 -1)  ( 0  0 -1)  ( 1  0  0)  ( 1  0 -1)  ( 0 -1  1)  ( 0 -1  0)
  ( 0  0 -1)  ( 0  1 -1)  ( 1  0 -1)  ( 1  0  0)  ( 0 -1  0)  ( 0 -1  1)

  ( 0  1  0)  ( 0  1  0)  ( 0  1  0)  ( 0  1  0)  ( 0  1 -1)  ( 0  1 -1)
  ( 1  0  0)  ( 0  1 -1)  ( 0  0  1)  (-1  1  0)  ( 1  0 -1)  ( 0  1  0)
  ( 0  0  1)  (-1  1  0)  ( 1  0  0)  ( 0  1 -1)  ( 0  0 -1)  (-1  1  0)

  ( 0  1 -1)  ( 0  1 -1)  ( 0  0  1)  ( 0  0  1)  ( 0  0  1)  ( 0  0  1)
  ( 0  0 -1)  (-1  1  0)  ( 1  0  0)  ( 0  1  0)  ( 0 -1  1)  (-1  0  1)
  ( 1  0 -1)  ( 0  1  0)  ( 0  1  0)  ( 1  0  0)  (-1  0  1)  ( 0 -1  1)

  ( 0  0 -1)  ( 0  0 -1)  ( 0  0 -1)  ( 0  0 -1)  ( 0 -1  1)  ( 0 -1  1)
  ( 1  0 -1)  ( 0  1 -1)  ( 0 -1  0)  (-1  0  0)  ( 1 -1  0)  ( 0  0  1)
  ( 0  1 -1)  ( 1  0 -1)  (-1  0  0)  ( 0 -1  0)  ( 0 -1  0)  (-1  0  1)

  ( 0 -1  1)  ( 0 -1  1)  ( 0 -1  0)  ( 0 -1  0)  ( 0 -1  0)  ( 0 -1  0)
  ( 0 -1  0)  (-1  0  1)  ( 1 -1  0)  ( 0  0 -1)  ( 0 -1  1)  (-1  0  0)
  ( 1 -1  0)  ( 0  0  1)  ( 0 -1  1)  (-1  0  0)  ( 1 -1  0)  ( 0  0 -1)

  (-1  1  0)  (-1  1  0)  (-1  1  0)  (-1  1  0)  (-1  0  1)  (-1  0  1)
  ( 0  1  0)  ( 0  1 -1)  (-1  0  1)  (-1  0  0)  ( 0  0  1)  ( 0 -1  1)
  ( 0  1 -1)  ( 0  1  0)  (-1  0  0)  (-1  0  1)  ( 0 -1  1)  ( 0  0  1)

  (-1  0  1)  (-1  0  1)  (-1  0  0)  (-1  0  0)  (-1  0  0)  (-1  0  0)
  (-1  1  0)  (-1  0  0)  ( 0  0 -1)  ( 0 -1  0)  (-1  1  0)  (-1  0  1)
  (-1  0  0)  (-1  1  0)  ( 0 -1  0)  ( 0  0 -1)  (-1  0  1)  (-1  1  0)
Note: your k-points are not as symmetric as your crystal!

512 k-points: 8 x 8 x 8 Monkhorst-Pack grid
60 k-points in the irreducible part of the Brillouin zone
       k-points in crystal coordinates                weights
   0:     0.06250000    0.06250000   -0.06250000          6/512
   1:     0.06250000    0.06250000    0.06250000          2/512
   2:     0.18750000   -0.06250000   -0.06250000          6/512
   3:     0.18750000    0.06250000   -0.18750000         12/512
   4:     0.18750000    0.06250000   -0.06250000         12/512
   5:     0.18750000    0.06250000    0.06250000          6/512
   6:     0.18750000    0.18750000   -0.18750000          6/512
   7:     0.18750000    0.18750000   -0.06250000          6/512
   8:     0.18750000    0.18750000    0.06250000          6/512
   9:     0.18750000    0.18750000    0.18750000          2/512
          ...
  59:     0.43750000    0.43750000    0.43750000          2/512

Wave functions: Plane wave expansion
  Cutoff energy: 400.000 eV
  Number of coefficients (min, max): 296, 310
  Using FFTW library
  Eigensolver: None  MatrixOperator buffer_size: default value or 
                              see value of nblock in input file
Diagonalizer layout: Serial LAPACKOrthonormalizer layout: Serial LAPACK 

Davidson(niter=1, smin=None, normalize=True) 

Densities:
  Coarse grid: 12*12*12 grid
  Fine grid: 24*24*24 grid
  Total Charge: 0.000000 

Density mixing:
  Method: separate
  Backend: pulay
  Linear mixing parameter: 0.01
  Mixing with 11 old densities
  Damping of long wave oscillations: 100 

Hamiltonian:
  XC and Coulomb potentials evaluated on a 24*24*24 grid
  Using the PBE Exchange-Correlation functional
 

Memory estimate:
  Process memory now: 926.95 MiB
  Calculator: 6.26 MiB
    Density: 1.28 MiB
      Arrays: 0.46 MiB
      Localized functions: 0.23 MiB
      Mixer: 0.58 MiB
    Hamiltonian: 0.35 MiB
      Arrays: 0.34 MiB
      XC: 0.00 MiB
      Poisson: 0.00 MiB
      vbar: 0.00 MiB
    Wavefunctions: 4.64 MiB
      Arrays psit_nG: 2.27 MiB
      Eigensolver: 0.05 MiB
      Projections: 0.10 MiB
      Projectors: 1.93 MiB
      Overlap op: 0.02 MiB
      PW-descriptor: 0.27 MiB

Total number of cores used: 1

Number of atoms: 1
Number of atomic orbitals: 4
Number of bands in calculation: 4
Bands to converge: occupied states only
Number of valence electrons: 3

... initialized

Initializing position-dependent things.

Density initialized from atomic densities
Creating initial wave functions:
  4 bands from LCAO basis set

                
                
                
       Al       
                
                
                
                

Positions:
   0 Al     0.000000    0.000000    0.000000

Unit cell:
           periodic     x           y           z      points  spacing
  1. axis:    yes    0.000000    2.024500    2.024500    12     0.1948
  2. axis:    yes    2.024500    0.000000    2.024500    12     0.1948
  3. axis:    yes    2.024500    2.024500    0.000000    12     0.1948

  Lengths:   2.863075   2.863075   2.863075
  Angles:   60.000000  60.000000  60.000000

Effective grid spacing dv^(1/3) = 0.2126

                     log10-error:    total        iterations:
           time      wfs    density  energy       fermi  poisson  magmom
iter:   1  14:54:41  +1.61   +inf    -3.713184    3               -0.0000
iter:   2  14:54:41  -0.24   +inf    -3.740120    4               +0.0000
iter:   3  14:54:42  -1.71   +inf    -3.741437    3               +0.0000
iter:   4  14:54:43  -2.66  -0.93    -3.741499    3               +0.0000
iter:   5  14:54:44  -1.79  -0.93    -3.740391    4               +0.0000
iter:   6  14:54:45  -2.80  -1.85    -3.740726    3               +0.0000
iter:   7  14:54:46  -3.69  -2.39    -3.740515    3               -0.0000
iter:   8  14:54:48  -3.53  -1.97    -3.740784    3               +0.0000
iter:   9  14:54:49  -4.45  -2.90    -3.740788    2               +0.0000
iter:  10  14:54:50  -5.24  -3.25    -3.740787    2               -0.0000
iter:  11  14:54:51  -6.37  -3.51    -3.740787    1               +0.0000
iter:  12  14:54:52  -5.91  -3.40    -3.740788    2               -0.0000
iter:  13  14:54:53  -7.01  -4.33    -3.740788    2               -0.0000
iter:  14  14:54:54  -7.71  -4.56    -3.740788    1               +0.0000

Converged after 14 iterations.

Dipole moment: (0.000000, 0.000000, 0.000000) |e|*Ang

Total magnetic moment: 0.000000
Local magnetic moments:
   0 Al 0.000000

Energy contributions relative to reference atoms: (reference = -6603.423265)

Kinetic:         +3.401968
Potential:       -1.553405
External:        +0.000000
XC:              -5.583307
Entropy (-ST):   -0.000497
Local:           -0.005796
--------------------------
Free energy:     -3.741036
Extrapolated:    -3.740788

Spin contamination: 0.000000 electrons
Fermi level: 7.07786

Warning: Showing only first 2 kpts
                      Up                     Down
 Kpt  Band  Eigenvalues  Occupancy  Eigenvalues  Occupancy
  0     0     -3.60687    0.01172     -3.60687    0.01172
  0     1     16.27002    0.00000     16.27002    0.00000
  0     2     17.77930    0.00000     17.77930    0.00000

  1     0     -3.88868    0.00391     -3.88868    0.00391
  1     1     17.90913    0.00000     17.90913    0.00000
  1     2     19.35577    0.00000     19.35577    0.00000


Input parameters:
  convergence: {bands: all}
  eigensolver: {name: cg,
                niter: 5}
  fixdensity: True
  kpts: {npoints: 50,
         path: WLGXWK}
  nbands: -4
  symmetry: off

Initialize ...

Al-setup:
  name: Aluminium
  id: 0292cae29f5d6237e50f6abdd43a7bdd
  Z: 13
  valence: 3
  core: 10
  charge: 0.0
  file: /usr/share/gpaw-setups/Al.PBE.gz
  cutoffs: 1.08(comp), 1.91(filt), 2.36(core), lmax=2
  valence states:
                energy  radius
    3s(2.00)    -7.753   1.085
    3p(1.00)    -2.712   1.085
    *s          19.459   1.085
    *p          24.499   1.085
    *d           0.000   1.085

  Using partial waves for Al as LCAO basis

Reference energy: -6603.423265

Spin-polarized calculation.
Magnetic moment:  0.000000

Occupation numbers:
  Fixed Fermi level
  Fermi-Dirac: width=0.0200 eV

Convergence criteria:
  Maximum total energy change: 0.0005 eV / electron
  Maximum integral of absolute density change: 0.0001 electrons
  Maximum integral of absolute eigenstate change: 4e-08 eV^2
  Maximum number of iterations: 1500

Symmetries present (total): 1

  ( 1  0  0)
  ( 0  1  0)
  ( 0  0  1)

50 k-points
50 k-points in the irreducible part of the Brillouin zone
       k-points in crystal coordinates                weights
   0:     0.50000000    0.25000000    0.75000000          1/50
   1:     0.50000000    0.27777778    0.72222222          1/50
   2:     0.50000000    0.30555556    0.69444444          1/50
   3:     0.50000000    0.33333333    0.66666667          1/50
   4:     0.50000000    0.36111111    0.63888889          1/50
   5:     0.50000000    0.38888889    0.61111111          1/50
   6:     0.50000000    0.41666667    0.58333333          1/50
   7:     0.50000000    0.44444444    0.55555556          1/50
   8:     0.50000000    0.47222222    0.52777778          1/50
   9:     0.50000000    0.50000000    0.50000000          1/50
          ...
  49:     0.37500000    0.37500000    0.75000000          1/50

Wave functions: Plane wave expansion
  Cutoff energy: 400.000 eV
  Number of coefficients (min, max): 294, 313
  Using FFTW library
  Eigensolver: None  MatrixOperator buffer_size: default value or 
                              see value of nblock in input file
Diagonalizer layout: Serial LAPACKOrthonormalizer layout: Serial LAPACK 

CG(niter=5, rtol=3.0e-01) 

No density mixing

Memory estimate:
  Process memory now: 985.68 MiB
  Calculator: 6.04 MiB
    Density: 1.28 MiB
      Arrays: 0.46 MiB
      Localized functions: 0.23 MiB
      Mixer: 0.58 MiB
    Hamiltonian: 0.35 MiB
      Arrays: 0.34 MiB
      XC: 0.00 MiB
      Poisson: 0.00 MiB
      vbar: 0.00 MiB
    Wavefunctions: 4.41 MiB
      Arrays psit_nG: 2.39 MiB
      Eigensolver: 0.05 MiB
      Projections: 0.10 MiB
      Projectors: 1.62 MiB
      Overlap op: 0.02 MiB
      PW-descriptor: 0.24 MiB

Total number of cores used: 1

Number of atoms: 1
Number of atomic orbitals: 4
Number of bands in calculation: 5
Bands to converge: all
Number of valence electrons: 3

... initialized

Initializing position-dependent things.

Creating initial wave functions:
  4 bands from LCAO basis set
  1 band from random numbers

                
                
                
       Al       
                
                
                
                

Positions:
   0 Al     0.000000    0.000000    0.000000

Unit cell:
           periodic     x           y           z      points  spacing
  1. axis:    yes    0.000000    2.024500    2.024500    12     0.1948
  2. axis:    yes    2.024500    0.000000    2.024500    12     0.1948
  3. axis:    yes    2.024500    2.024500    0.000000    12     0.1948

  Lengths:   2.863075   2.863075   2.863075
  Angles:   60.000000  60.000000  60.000000

Effective grid spacing dv^(1/3) = 0.2126

                     log10-error:    total        iterations:
           time      wfs    density  energy       fermi  poisson  magmom
iter:   1  14:55:00  +3.77           -3.736764    20              +0.0000
iter:   2  14:55:02  +2.81           -3.860962    30              +0.0007
iter:   3  14:55:04  +1.82           -3.871877    30              +0.0000
iter:   4  14:55:06  +0.92           -3.872145    29              +0.0000
iter:   5  14:55:08  +0.25           -3.872167    29              +0.0000
iter:   6  14:55:10  -0.54           -3.872171    31              +0.0000
iter:   7  14:55:12  -0.47           -3.872171    29              +0.0000
iter:   8  14:55:14  -0.33           -3.872171    31              +0.0000
iter:   9  14:55:16  -0.83           -3.872171    30              +0.0000
iter:  10  14:55:18  -2.11           -3.872171    30              +0.0000
iter:  11  14:55:20  -2.91           -3.872171    30              +0.0000
iter:  12  14:55:21  -3.38           -3.872171    30              +0.0000
iter:  13  14:55:22  -3.91           -3.872171    30              +0.0000
iter:  14  14:55:22  -3.71           -3.872171    30              +0.0000
iter:  15  14:55:23  -4.77           -3.872171    30              +0.0000
iter:  16  14:55:24  -4.49           -3.872171    30              +0.0000
iter:  17  14:55:25  -4.83           -3.872171    30              +0.0000
iter:  18  14:55:25  -4.74           -3.872171    30              +0.0000
iter:  19  14:55:26  -6.16           -3.872171    30              +0.0000
iter:  20  14:55:27  -5.78           -3.872171    30              +0.0000
iter:  21  14:55:27  -6.32           -3.872171    30              +0.0000
iter:  22  14:55:28  -5.66           -3.872171    30              +0.0000
iter:  23  14:55:28  -7.02           -3.872171    30              +0.0000
iter:  24  14:55:29  -7.43           -3.872171    30              +0.0000

Converged after 24 iterations.

Dipole moment: (0.000000, 0.000000, 0.000000) |e|*Ang

Total magnetic moment: 0.000000
Local magnetic moments:
   0 Al 0.000000

Energy contributions relative to reference atoms: (reference = -6603.423265)

Kinetic:         +3.271095
Potential:       -1.553404
External:        +0.000000
XC:              -5.583302
Entropy (-ST):   -0.001526
Local:           -0.005798
--------------------------
Free energy:     -3.872934
Extrapolated:    -3.872171

Spin contamination: 0.000000 electrons
Fixed Fermi level: 7.07786

Warning: Showing only first 2 kpts
                      Up                     Down
 Kpt  Band  Eigenvalues  Occupancy  Eigenvalues  Occupancy
  0     0      6.26354    0.01846      6.26354    0.01846
  0     1      6.26356    0.01845      6.26356    0.01845
  0     2      7.28190    0.00000      7.28190    0.00000

  1     0      5.75672    0.02000      5.75672    0.02000
  1     1      5.91605    0.02000      5.91605    0.02000
  1     2      7.89295    0.00000      7.89295    0.00000


Timing:                              incl.     excl.
-----------------------------------------------------------
Hamiltonian:                         0.539     0.002   0.0% |
 Atomic:                             0.410     0.002   0.0% |
  XC Correction:                     0.408     0.408   0.8% |
 Calculate atomic Hamiltonians:      0.005     0.005   0.0% |
 Communicate:                        0.000     0.000   0.0% |
 Initialize Hamiltonian:             0.000     0.000   0.0% |
 Poisson:                            0.000     0.000   0.0% |
 XC 3D grid:                         0.121     0.121   0.2% |
LCAO initialization:                 2.338     0.046   0.1% |
 LCAO eigensolver:                   1.317     0.019   0.0% |
  Calculate projections:             0.005     0.005   0.0% |
  DenseAtomicCorrection:             0.035     0.035   0.1% |
  Distribute overlap matrix:         0.008     0.008   0.0% |
  Orbital Layouts:                   0.035     0.035   0.1% |
  Potential matrix:                  0.187     0.187   0.4% |
  Sum over cells:                    1.028     1.028   1.9% ||
 LCAO to grid:                       0.504     0.504   1.0% |
 Set positions (LCAO WFS):           0.471     0.001   0.0% |
  Basic WFS set positions:           0.002     0.002   0.0% |
  Basis functions set positions:     0.000     0.000   0.0% |
  TCI: Calculate S, T, P:            0.469     0.469   0.9% |
PWDescriptor:                        0.025     0.025   0.0% |
Redistribute:                        0.000     0.000   0.0% |
SCF-cycle:                          47.444     8.916  16.8% |------|
 CG:                                20.277    17.779  33.6% |------------|
  CG: orthonormalize:                2.498     1.469   2.8% ||
   CG: overlap:                      0.620     0.620   1.2% |
   CG: overlap2:                     0.409     0.409   0.8% |
 Davidson:                           7.087     4.332   8.2% |--|
  calc. matrices:                    1.845     1.845   3.5% ||
  diagonalize:                       0.537     0.537   1.0% |
  rotate_psi:                        0.373     0.373   0.7% |
 Density:                            1.186     0.000   0.0% |
  Atomic density matrices:           0.037     0.037   0.1% |
  Mix:                               0.060     0.060   0.1% |
  Multipole moments:                 0.001     0.001   0.0% |
  Pseudo density:                    1.087     0.896   1.7% ||
   Symmetrize density:               0.191     0.191   0.4% |
 Hamiltonian:                        2.848     0.007   0.0% |
  Atomic:                            2.222     0.012   0.0% |
   XC Correction:                    2.211     2.211   4.2% |-|
  Calculate atomic Hamiltonians:     0.027     0.027   0.1% |
  Communicate:                       0.000     0.000   0.0% |
  Poisson:                           0.002     0.002   0.0% |
  XC 3D grid:                        0.590     0.590   1.1% |
 Orthonormalize:                     0.186     0.015   0.0% |
  Band Layouts:                      0.010     0.004   0.0% |
   Inverse Cholesky:                 0.007     0.007   0.0% |
  calc_s_matrix:                     0.027     0.027   0.1% |
  projections:                       0.110     0.110   0.2% |
  rotate_psi:                        0.023     0.023   0.0% |
 Residuals:                          1.572     1.572   3.0% ||
 Subspace diag:                      5.372     0.470   0.9% |
  Band Layouts:                      0.623     0.136   0.3% |
   Diagonalize:                      0.393     0.393   0.7% |
   Distribute results:               0.095     0.095   0.2% |
  calc_h_matrix:                     3.496     3.496   6.6% |--|
  rotate_psi:                        0.782     0.782   1.5% ||
Set symmetry:                        0.157     0.157   0.3% |
Other:                               2.458     2.458   4.6% |-|
-----------------------------------------------------------
Total:                                        52.961 100.0%

Date: Thu Feb 11 14:55:30 2021
element =  Al
struct =  fcc
kpts =  (8,8,8)
element =  Al
configuration =  [Ne] 3s2 3p1 3d0
valence =  ['3s', '3p', '3d']
occupations =  {'3s': 2, '3p': 1, '3d': 0}
nls =  3p
rNum =  600
lmax =  d
*******************************************
Starting confinement parameter optimization
Adjustable parameters and initial values:
  Al_3d.r0 : 4.573137
  Al_3p.r0 : 4.573137
  Al_3s.r0 : 4.573137
  Al_n.r0 : 6.859706
*******************************************

OPT_VAL: 4.573137224525366   4.573137224525366   4.573137224525366   6.8597058367880495
VCONF:
  Al_3d : PowerConfinement(r0=4.573137, s=2.000000)
  Al_3p : PowerConfinement(r0=4.573137, s=2.000000)
  Al_3s : PowerConfinement(r0=4.573137, s=2.000000)
  Al_n : PowerConfinement(r0=6.859706, s=2.000000)
RESIDUAL: 0.0

OPT_VAL: 4.7731372245253665   4.573137224525366   4.573137224525366   6.8597058367880495
VCONF:
  Al_3d : PowerConfinement(r0=4.773137, s=2.000000)
  Al_3p : PowerConfinement(r0=4.573137, s=2.000000)
  Al_3s : PowerConfinement(r0=4.573137, s=2.000000)
  Al_n : PowerConfinement(r0=6.859706, s=2.000000)
RESIDUAL: 0.0

OPT_VAL: 4.573137224525366   4.7731372245253665   4.573137224525366   6.8597058367880495
VCONF:
  Al_3d : PowerConfinement(r0=4.573137, s=2.000000)
  Al_3p : PowerConfinement(r0=4.773137, s=2.000000)
  Al_3s : PowerConfinement(r0=4.573137, s=2.000000)
  Al_n : PowerConfinement(r0=6.859706, s=2.000000)
RESIDUAL: 0.0

OPT_VAL: 4.573137224525366   4.573137224525366   4.7731372245253665   6.8597058367880495
VCONF:
  Al_3d : PowerConfinement(r0=4.573137, s=2.000000)
  Al_3p : PowerConfinement(r0=4.573137, s=2.000000)
  Al_3s : PowerConfinement(r0=4.773137, s=2.000000)
  Al_n : PowerConfinement(r0=6.859706, s=2.000000)
RESIDUAL: 0.0

OPT_VAL: 4.573137224525366   4.573137224525366   4.573137224525366   7.05970583678805
VCONF:
  Al_3d : PowerConfinement(r0=4.573137, s=2.000000)
  Al_3p : PowerConfinement(r0=4.573137, s=2.000000)
  Al_3s : PowerConfinement(r0=4.573137, s=2.000000)
  Al_n : PowerConfinement(r0=7.059706, s=2.000000)
RESIDUAL: 0.0

OPT_VAL: 4.598137224525367   4.573137224525366   4.573137224525366   6.8597058367880495
VCONF:
  Al_3d : PowerConfinement(r0=4.598137, s=2.000000)
  Al_3p : PowerConfinement(r0=4.573137, s=2.000000)
  Al_3s : PowerConfinement(r0=4.573137, s=2.000000)
  Al_n : PowerConfinement(r0=6.859706, s=2.000000)
RESIDUAL: 0.0

OPT_VAL: 4.573137224525366   4.598137224525367   4.573137224525366   6.8597058367880495
VCONF:
  Al_3d : PowerConfinement(r0=4.573137, s=2.000000)
  Al_3p : PowerConfinement(r0=4.598137, s=2.000000)
  Al_3s : PowerConfinement(r0=4.573137, s=2.000000)
  Al_n : PowerConfinement(r0=6.859706, s=2.000000)
RESIDUAL: 0.0

OPT_VAL: 4.573137224525366   4.573137224525366   4.598137224525367   6.8597058367880495
VCONF:
  Al_3d : PowerConfinement(r0=4.573137, s=2.000000)
  Al_3p : PowerConfinement(r0=4.573137, s=2.000000)
  Al_3s : PowerConfinement(r0=4.598137, s=2.000000)
  Al_n : PowerConfinement(r0=6.859706, s=2.000000)
RESIDUAL: 0.0

OPT_VAL: 4.573137224525366   4.573137224525366   4.573137224525366   6.88470583678805
VCONF:
  Al_3d : PowerConfinement(r0=4.573137, s=2.000000)
  Al_3p : PowerConfinement(r0=4.573137, s=2.000000)
  Al_3s : PowerConfinement(r0=4.573137, s=2.000000)
  Al_n : PowerConfinement(r0=6.884706, s=2.000000)
RESIDUAL: 0.0

OPT_VAL: 4.578137224525366   4.573137224525366   4.573137224525366   6.8597058367880495
VCONF:
  Al_3d : PowerConfinement(r0=4.578137, s=2.000000)
  Al_3p : PowerConfinement(r0=4.573137, s=2.000000)
  Al_3s : PowerConfinement(r0=4.573137, s=2.000000)
  Al_n : PowerConfinement(r0=6.859706, s=2.000000)
RESIDUAL: 0.0

OPT_VAL: 4.573137224525366   4.578137224525366   4.573137224525366   6.8597058367880495
VCONF:
  Al_3d : PowerConfinement(r0=4.573137, s=2.000000)
  Al_3p : PowerConfinement(r0=4.578137, s=2.000000)
  Al_3s : PowerConfinement(r0=4.573137, s=2.000000)
  Al_n : PowerConfinement(r0=6.859706, s=2.000000)
RESIDUAL: 0.0

OPT_VAL: 4.573137224525366   4.573137224525366   4.578137224525366   6.8597058367880495
VCONF:
  Al_3d : PowerConfinement(r0=4.573137, s=2.000000)
  Al_3p : PowerConfinement(r0=4.573137, s=2.000000)
  Al_3s : PowerConfinement(r0=4.578137, s=2.000000)
  Al_n : PowerConfinement(r0=6.859706, s=2.000000)
RESIDUAL: 0.0

OPT_VAL: 4.573137224525366   4.573137224525366   4.573137224525366   6.864705836788049
VCONF:
  Al_3d : PowerConfinement(r0=4.573137, s=2.000000)
  Al_3p : PowerConfinement(r0=4.573137, s=2.000000)
  Al_3s : PowerConfinement(r0=4.573137, s=2.000000)
  Al_n : PowerConfinement(r0=6.864706, s=2.000000)
RESIDUAL: 0.0

*******************************************
Optimization finished after 13 iterations
Adjustable parameters and final values:
  Al_3d.r0 : 4.573137
  Al_3p.r0 : 4.573137
  Al_3s.r0 : 4.573137
  Al_n.r0 : 6.859706
*******************************************

VCONF:
  Al_3d : PowerConfinement(r0=4.573137, s=2.000000)
  Al_3p : PowerConfinement(r0=4.573137, s=2.000000)
  Al_3s : PowerConfinement(r0=4.573137, s=2.000000)
  Al_n : PowerConfinement(r0=6.859706, s=2.000000)
