element =  Se
struct =  bcc
nbands =  -4
path =  GHNGP
kpts =  (8,8,8)
lattice constant a =  3.441
lattice constant b =  3.441
lattice constant c =  3.441
alpha angle =  90.0

  ___ ___ ___ _ _ _  
 |   |   |_  | | | | 
 | | | | | . | | | | 
 |__ |  _|___|_____|  1.3.1b1
 |___|_|             

User:   inukai@DESKTOP-12SE80T
Date:   Thu Feb 11 20:17:28 2021
Arch:   x86_64
Pid:    14078
Python: 3.6.9
gpaw:   /usr/lib/python3/dist-packages/gpaw
_gpaw:  /usr/lib/python3/dist-packages/_gpaw.cpython-36m-x86_64-linux-gnu.so
ase:    /home/inukai/hotcent/ase-3.19.3/ase (version 3.19.3)
numpy:  /home/inukai/.local/lib/python3.6/site-packages/numpy (version 1.19.5)
scipy:  /home/inukai/.local/lib/python3.6/site-packages/scipy (version 1.5.4)
units:  Angstrom and eV
cores:  1

Input parameters:
  kpts: [8 8 8]
  maxiter: 1500
  mixer: {backend: pulay,
          beta: 0.01,
          method: separate,
          nmaxold: 11,
          weight: 100.0}
  mode: {ecut: 400.0,
         name: pw}
  occupations: {name: fermi-dirac,
                width: 0.02}
  spinpol: True
  xc: PBE

System changes: positions, numbers, cell, pbc, initial_charges, initial_magmoms 

Initialize ...

Se-setup:
  name: Selenium
  id: 2336a0774a38175ff9db42ee3890f88a
  Z: 34
  valence: 6
  core: 28
  charge: 0.0
  file: /usr/share/gpaw-setups/Se.PBE.gz
  cutoffs: 0.85(comp), 1.77(filt), 2.67(core), lmax=2
  valence states:
                energy  radius
    4s(2.00)   -17.277   0.847
    4p(4.00)    -6.512   1.005
    *s           9.935   0.847
    *p          20.699   1.005
    *d           0.000   0.847

  Using partial waves for Se as LCAO basis

Reference energy: -66103.532131

Spin-polarized calculation.
Magnetic moment:  0.000000

Occupation numbers:
  Fermi-Dirac: width=0.0200 eV

Convergence criteria:
  Maximum total energy change: 0.0005 eV / electron
  Maximum integral of absolute density change: 0.0001 electrons
  Maximum integral of absolute eigenstate change: 4e-08 eV^2
  Maximum number of iterations: 1500

Symmetries present (total): 48

  ( 1  1  1)  ( 1  1  1)  ( 1  1  1)  ( 1  1  1)  ( 1  1  1)  ( 1  1  1)
  ( 0  0 -1)  ( 0  0 -1)  ( 0 -1  0)  ( 0 -1  0)  (-1  0  0)  (-1  0  0)
  ( 0 -1  0)  (-1  0  0)  ( 0  0 -1)  (-1  0  0)  ( 0  0 -1)  ( 0 -1  0)

  ( 1  0  0)  ( 1  0  0)  ( 1  0  0)  ( 1  0  0)  ( 1  0  0)  ( 1  0  0)
  ( 0  1  0)  ( 0  1  0)  ( 0  0  1)  ( 0  0  1)  (-1 -1 -1)  (-1 -1 -1)
  ( 0  0  1)  (-1 -1 -1)  ( 0  1  0)  (-1 -1 -1)  ( 0  1  0)  ( 0  0  1)

  ( 0  1  0)  ( 0  1  0)  ( 0  1  0)  ( 0  1  0)  ( 0  1  0)  ( 0  1  0)
  ( 1  0  0)  ( 1  0  0)  ( 0  0  1)  ( 0  0  1)  (-1 -1 -1)  (-1 -1 -1)
  ( 0  0  1)  (-1 -1 -1)  ( 1  0  0)  (-1 -1 -1)  ( 1  0  0)  ( 0  0  1)

  ( 0  0  1)  ( 0  0  1)  ( 0  0  1)  ( 0  0  1)  ( 0  0  1)  ( 0  0  1)
  ( 1  0  0)  ( 1  0  0)  ( 0  1  0)  ( 0  1  0)  (-1 -1 -1)  (-1 -1 -1)
  ( 0  1  0)  (-1 -1 -1)  ( 1  0  0)  (-1 -1 -1)  ( 1  0  0)  ( 0  1  0)

  ( 0  0 -1)  ( 0  0 -1)  ( 0  0 -1)  ( 0  0 -1)  ( 0  0 -1)  ( 0  0 -1)
  ( 1  1  1)  ( 1  1  1)  ( 0 -1  0)  ( 0 -1  0)  (-1  0  0)  (-1  0  0)
  ( 0 -1  0)  (-1  0  0)  ( 1  1  1)  (-1  0  0)  ( 1  1  1)  ( 0 -1  0)

  ( 0 -1  0)  ( 0 -1  0)  ( 0 -1  0)  ( 0 -1  0)  ( 0 -1  0)  ( 0 -1  0)
  ( 1  1  1)  ( 1  1  1)  ( 0  0 -1)  ( 0  0 -1)  (-1  0  0)  (-1  0  0)
  ( 0  0 -1)  (-1  0  0)  ( 1  1  1)  (-1  0  0)  ( 1  1  1)  ( 0  0 -1)

  (-1  0  0)  (-1  0  0)  (-1  0  0)  (-1  0  0)  (-1  0  0)  (-1  0  0)
  ( 1  1  1)  ( 1  1  1)  ( 0  0 -1)  ( 0  0 -1)  ( 0 -1  0)  ( 0 -1  0)
  ( 0  0 -1)  ( 0 -1  0)  ( 1  1  1)  ( 0 -1  0)  ( 1  1  1)  ( 0  0 -1)

  (-1 -1 -1)  (-1 -1 -1)  (-1 -1 -1)  (-1 -1 -1)  (-1 -1 -1)  (-1 -1 -1)
  ( 1  0  0)  ( 1  0  0)  ( 0  1  0)  ( 0  1  0)  ( 0  0  1)  ( 0  0  1)
  ( 0  1  0)  ( 0  0  1)  ( 1  0  0)  ( 0  0  1)  ( 1  0  0)  ( 0  1  0)

512 k-points: 8 x 8 x 8 Monkhorst-Pack grid
26 k-points in the irreducible part of the Brillouin zone
       k-points in crystal coordinates                weights
   0:     0.06250000    0.06250000   -0.06250000          6/512
   1:     0.18750000   -0.06250000   -0.06250000          8/512
   2:     0.18750000    0.06250000   -0.06250000         24/512
   3:     0.18750000    0.18750000   -0.18750000          6/512
   4:     0.31250000   -0.06250000   -0.06250000         24/512
   5:     0.31250000    0.06250000   -0.18750000         24/512
   6:     0.31250000    0.06250000   -0.06250000         24/512
   7:     0.31250000    0.18750000   -0.18750000         24/512
   8:     0.31250000    0.31250000   -0.31250000          6/512
   9:     0.31250000    0.31250000    0.18750000         12/512
          ...
  25:     0.43750000    0.43750000    0.43750000          8/512

Wave functions: Plane wave expansion
  Cutoff energy: 400.000 eV
  Number of coefficients (min, max): 358, 379
  Using FFTW library
  Eigensolver: None  MatrixOperator buffer_size: default value or 
                              see value of nblock in input file
Diagonalizer layout: Serial LAPACKOrthonormalizer layout: Serial LAPACK 

Davidson(niter=1, smin=None, normalize=True) 

Densities:
  Coarse grid: 12*12*12 grid
  Fine grid: 24*24*24 grid
  Total Charge: 0.000000 

Density mixing:
  Method: separate
  Backend: pulay
  Linear mixing parameter: 0.01
  Mixing with 11 old densities
  Damping of long wave oscillations: 100 

Hamiltonian:
  XC and Coulomb potentials evaluated on a 24*24*24 grid
  Using the PBE Exchange-Correlation functional
 

Memory estimate:
  Process memory now: 926.95 MiB
  Calculator: 4.17 MiB
    Density: 1.30 MiB
      Arrays: 0.46 MiB
      Localized functions: 0.26 MiB
      Mixer: 0.58 MiB
    Hamiltonian: 0.35 MiB
      Arrays: 0.34 MiB
      XC: 0.00 MiB
      Poisson: 0.00 MiB
      vbar: 0.01 MiB
    Wavefunctions: 2.52 MiB
      Arrays psit_nG: 1.20 MiB
      Eigensolver: 0.05 MiB
      Projections: 0.04 MiB
      Projectors: 1.03 MiB
      Overlap op: 0.02 MiB
      PW-descriptor: 0.18 MiB

Total number of cores used: 1

Number of atoms: 1
Number of atomic orbitals: 4
Number of bands in calculation: 4
Bands to converge: occupied states only
Number of valence electrons: 6

... initialized

Initializing position-dependent things.

Density initialized from atomic densities
Creating initial wave functions:
  4 bands from LCAO basis set

                
                
                
       Se       
                
                
                
                

Positions:
   0 Se     0.000000    0.000000    0.000000

Unit cell:
           periodic     x           y           z      points  spacing
  1. axis:    yes   -1.720500    1.720500    1.720500    12     0.2028
  2. axis:    yes    1.720500   -1.720500    1.720500    12     0.2028
  3. axis:    yes    1.720500    1.720500   -1.720500    12     0.2028

  Lengths:   2.979993   2.979993   2.979993
  Angles:  109.471221 109.471221 109.471221

Effective grid spacing dv^(1/3) = 0.2276

                     log10-error:    total        iterations:
           time      wfs    density  energy       fermi  poisson  magmom
iter:   1  20:17:30  +0.56   +inf    -2.761073    3               +0.0000
iter:   2  20:17:31  -0.41   +inf    -2.800554    4               -0.0000
iter:   3  20:17:31  -1.50   +inf    -2.805191    3               +0.0000
iter:   4  20:17:32  -2.19  -1.56    -2.805958    3               -0.0000
iter:   5  20:17:32  -2.78  -1.56    -2.805518    4               +0.0000
iter:   6  20:17:33  -2.10  -1.68    -2.805782    6               +0.0000
iter:   7  20:17:34  -3.00  -2.36    -2.806161    4               +0.0000
iter:   8  20:17:34  -3.74  -2.24    -2.806440    3               +0.0000
iter:   9  20:17:35  -3.94  -2.12    -2.806481    3               +0.0000
iter:  10  20:17:36  -2.96  -2.12    -2.805619    4               -0.0000
iter:  11  20:17:36  -3.73  -3.05    -2.805638    4               +0.0000
iter:  12  20:17:37  -4.65  -2.97    -2.805637    2               +0.0000
iter:  13  20:17:38  -4.84  -2.98    -2.805631    3               +0.0000
iter:  14  20:17:38  -5.19  -3.51    -2.805632    2               -0.0000
iter:  15  20:17:39  -6.23  -3.33    -2.805632    2               +0.0000
iter:  16  20:17:40  -6.77  -3.33    -2.805632    2               +0.0000
iter:  17  20:17:41  -6.94  -3.30    -2.805631    2               -0.0000
iter:  18  20:17:41  -5.99  -3.33    -2.805632    2               -0.0000
iter:  19  20:17:42  -6.89  -4.13    -2.805632    2               +0.0000
iter:  20  20:17:43  -7.91  -4.16    -2.805632    2               +0.0000

Converged after 20 iterations.

Dipole moment: (-0.000000, -0.000000, -0.000000) |e|*Ang

Total magnetic moment: 0.000002
Local magnetic moments:
   0 Se 0.000005

Energy contributions relative to reference atoms: (reference = -66103.532131)

Kinetic:         +2.448417
Potential:       -2.071092
External:        +0.000000
XC:              -3.121831
Entropy (-ST):   -0.002316
Local:           -0.059967
--------------------------
Free energy:     -2.806790
Extrapolated:    -2.805632

Spin contamination: 0.000006 electrons
Fermi level: 7.95879

Warning: Showing only first 2 kpts
                      Up                     Down
 Kpt  Band  Eigenvalues  Occupancy  Eigenvalues  Occupancy
  0     1     10.12706    0.00000     10.12706    0.00000
  0     2     10.50375    0.00000     10.50376    0.00000
  0     3     10.50418    0.00000     10.50418    0.00000

  1     1      8.33488    0.00000      8.33489    0.00000
  1     2     10.29568    0.00000     10.29568    0.00000
  1     3     10.29622    0.00000     10.29622    0.00000


Input parameters:
  convergence: {bands: all}
  eigensolver: {name: cg,
                niter: 5}
  fixdensity: True
  kpts: {npoints: 50,
         path: GHNGP}
  nbands: -4
  symmetry: off

Initialize ...

Se-setup:
  name: Selenium
  id: 2336a0774a38175ff9db42ee3890f88a
  Z: 34
  valence: 6
  core: 28
  charge: 0.0
  file: /usr/share/gpaw-setups/Se.PBE.gz
  cutoffs: 0.85(comp), 1.77(filt), 2.67(core), lmax=2
  valence states:
                energy  radius
    4s(2.00)   -17.277   0.847
    4p(4.00)    -6.512   1.005
    *s           9.935   0.847
    *p          20.699   1.005
    *d           0.000   0.847

  Using partial waves for Se as LCAO basis

Reference energy: -66103.532131

Spin-polarized calculation.
Magnetic moment:  0.000000

Occupation numbers:
  Fixed Fermi level
  Fermi-Dirac: width=0.0200 eV

Convergence criteria:
  Maximum total energy change: 0.0005 eV / electron
  Maximum integral of absolute density change: 0.0001 electrons
  Maximum integral of absolute eigenstate change: 4e-08 eV^2
  Maximum number of iterations: 1500

Symmetries present (total): 1

  ( 1  0  0)
  ( 0  1  0)
  ( 0  0  1)

50 k-points
50 k-points in the irreducible part of the Brillouin zone
       k-points in crystal coordinates                weights
   0:     0.00000000    0.00000000    0.00000000          1/50
   1:     0.03571429   -0.03571429    0.03571429          1/50
   2:     0.07142857   -0.07142857    0.07142857          1/50
   3:     0.10714286   -0.10714286    0.10714286          1/50
   4:     0.14285714   -0.14285714    0.14285714          1/50
   5:     0.17857143   -0.17857143    0.17857143          1/50
   6:     0.21428571   -0.21428571    0.21428571          1/50
   7:     0.25000000   -0.25000000    0.25000000          1/50
   8:     0.28571429   -0.28571429    0.28571429          1/50
   9:     0.32142857   -0.32142857    0.32142857          1/50
          ...
  49:     0.25000000    0.25000000    0.25000000          1/50

Wave functions: Plane wave expansion
  Cutoff energy: 400.000 eV
  Number of coefficients (min, max): 360, 382
  Using FFTW library
  Eigensolver: None  MatrixOperator buffer_size: default value or 
                              see value of nblock in input file
Diagonalizer layout: Serial LAPACKOrthonormalizer layout: Serial LAPACK 

CG(niter=5, rtol=3.0e-01) 

No density mixing

Memory estimate:
  Process memory now: 984.69 MiB
  Calculator: 8.22 MiB
    Density: 1.30 MiB
      Arrays: 0.46 MiB
      Localized functions: 0.26 MiB
      Mixer: 0.58 MiB
    Hamiltonian: 0.35 MiB
      Arrays: 0.34 MiB
      XC: 0.00 MiB
      Poisson: 0.00 MiB
      vbar: 0.01 MiB
    Wavefunctions: 6.58 MiB
      Arrays psit_nG: 4.08 MiB
      Eigensolver: 0.07 MiB
      Projections: 0.14 MiB
      Projectors: 1.97 MiB
      Overlap op: 0.04 MiB
      PW-descriptor: 0.28 MiB

Total number of cores used: 1

Number of atoms: 1
Number of atomic orbitals: 4
Number of bands in calculation: 7
Bands to converge: all
Number of valence electrons: 6

... initialized

Initializing position-dependent things.

Creating initial wave functions:
  4 bands from LCAO basis set
  3 bands from random numbers

                
                
                
       Se       
                
                
                
                

Positions:
   0 Se     0.000000    0.000000    0.000000

Unit cell:
           periodic     x           y           z      points  spacing
  1. axis:    yes   -1.720500    1.720500    1.720500    12     0.2028
  2. axis:    yes    1.720500   -1.720500    1.720500    12     0.2028
  3. axis:    yes    1.720500    1.720500   -1.720500    12     0.2028

  Lengths:   2.979993   2.979993   2.979993
  Angles:  109.471221 109.471221 109.471221

Effective grid spacing dv^(1/3) = 0.2276

                     log10-error:    total        iterations:
           time      wfs    density  energy       fermi  poisson  magmom
iter:   1  20:17:50  +3.92           -0.652147    32              -0.0127
iter:   2  20:17:52  +2.88           -0.834761    32              -0.0033
iter:   3  20:17:55  +1.94           -0.852440    33              -0.0002
iter:   4  20:17:58  +1.14           -0.853548    32              -0.0001
iter:   5  20:18:01  +0.34           -0.853630    32              -0.0000
iter:   6  20:18:04  -0.38           -0.853643    31              +0.0000
iter:   7  20:18:07  -0.96           -0.853646    30              +0.0000
iter:   8  20:18:10  -1.53           -0.853646    28              +0.0000
iter:   9  20:18:12  -1.67           -0.853646    33              +0.0000
iter:  10  20:18:15  -2.55           -0.853646    32              +0.0000
iter:  11  20:18:17  -2.66           -0.853646    32              +0.0000
iter:  12  20:18:20  -3.07           -0.853646    31              +0.0000
iter:  13  20:18:22  -3.08           -0.853646    33              +0.0000
iter:  14  20:18:23  -3.82           -0.853646    33              +0.0000
iter:  15  20:18:24  -3.94           -0.853646    33              +0.0000
iter:  16  20:18:25  -3.95           -0.853646    33              +0.0000
iter:  17  20:18:26  -3.96           -0.853646    33              +0.0000
iter:  18  20:18:28  -4.54           -0.853646    33              +0.0000
iter:  19  20:18:29  -4.62           -0.853646    33              +0.0000
iter:  20  20:18:29  -4.91           -0.853646    33              +0.0000
iter:  21  20:18:30  -5.07           -0.853646    33              +0.0000
iter:  22  20:18:31  -4.64           -0.853646    33              +0.0000
iter:  23  20:18:32  -4.66           -0.853646    33              +0.0000
iter:  24  20:18:33  -5.12           -0.853646    33              +0.0000
iter:  25  20:18:34  -4.97           -0.853646    33              +0.0000
iter:  26  20:18:35  -4.57           -0.853646    33              +0.0000
iter:  27  20:18:36  -5.45           -0.853646    33              +0.0000
iter:  28  20:18:37  -5.26           -0.853646    33              +0.0000
iter:  29  20:18:38  -6.13           -0.853646    33              +0.0000
iter:  30  20:18:38  -5.60           -0.853646    33              +0.0000
iter:  31  20:18:39  -4.55           -0.853646    33              +0.0000
iter:  32  20:18:40  -5.66           -0.853646    33              +0.0000
iter:  33  20:18:41  -6.14           -0.853646    33              +0.0000
iter:  34  20:18:42  -5.55           -0.853646    33              +0.0000
iter:  35  20:18:43  -6.20           -0.853646    33              +0.0000
iter:  36  20:18:44  -6.01           -0.853646    33              +0.0000
iter:  37  20:18:44  -5.85           -0.853646    33              +0.0000
iter:  38  20:18:45  -6.17           -0.853646    33              +0.0000
iter:  39  20:18:46  -6.26           -0.853646    33              +0.0000
iter:  40  20:18:47  -5.96           -0.853646    33              +0.0000
iter:  41  20:18:48  -6.28           -0.853646    33              +0.0000
iter:  42  20:18:49  -5.69           -0.853646    33              +0.0000
iter:  43  20:18:49  -6.24           -0.853646    33              +0.0000
iter:  44  20:18:50  -6.04           -0.853646    33              +0.0000
iter:  45  20:18:51  -5.76           -0.853646    33              +0.0000
iter:  46  20:18:52  -5.94           -0.853646    33              +0.0000
iter:  47  20:18:53  -6.09           -0.853646    33              +0.0000
iter:  48  20:18:54  -5.99           -0.853646    33              +0.0000
iter:  49  20:18:54  -6.18           -0.853646    33              +0.0000
iter:  50  20:18:55  -5.68           -0.853646    33              +0.0000
iter:  51  20:18:56  -5.30           -0.853646    33              +0.0000
iter:  52  20:18:57  -6.44           -0.853646    33              +0.0000
iter:  53  20:18:58  -6.34           -0.853646    33              +0.0000
iter:  54  20:18:59  -5.92           -0.853646    33              +0.0000
iter:  55  20:18:59  -6.09           -0.853646    33              +0.0000
iter:  56  20:19:00  -6.24           -0.853646    33              +0.0000
iter:  57  20:19:01  -6.47           -0.853646    33              +0.0000
iter:  58  20:19:02  -5.65           -0.853646    33              +0.0000
iter:  59  20:19:03  -6.35           -0.853646    33              +0.0000
iter:  60  20:19:04  -6.50           -0.853646    33              +0.0000
iter:  61  20:19:04  -6.45           -0.853646    33              +0.0000
iter:  62  20:19:05  -6.18           -0.853646    33              +0.0000
iter:  63  20:19:06  -6.61           -0.853646    33              +0.0000
iter:  64  20:19:07  -6.58           -0.853646    33              +0.0000
iter:  65  20:19:08  -6.53           -0.853646    33              +0.0000
iter:  66  20:19:09  -6.18           -0.853646    33              +0.0000
iter:  67  20:19:09  -6.66           -0.853646    33              +0.0000
iter:  68  20:19:10  -6.48           -0.853646    33              +0.0000
iter:  69  20:19:11  -6.40           -0.853646    33              +0.0000
iter:  70  20:19:12  -6.34           -0.853646    33              +0.0000
iter:  71  20:19:13  -6.64           -0.853646    33              +0.0000
iter:  72  20:19:13  -6.42           -0.853646    33              +0.0000
iter:  73  20:19:14  -6.67           -0.853646    33              +0.0000
iter:  74  20:19:15  -6.22           -0.853646    33              +0.0000
iter:  75  20:19:16  -6.14           -0.853646    33              +0.0000
iter:  76  20:19:17  -6.52           -0.853646    33              +0.0000
iter:  77  20:19:18  -6.39           -0.853646    33              +0.0000
iter:  78  20:19:18  -5.99           -0.853646    33              +0.0000
iter:  79  20:19:19  -6.66           -0.853646    33              +0.0000
iter:  80  20:19:20  -6.47           -0.853646    33              +0.0000
iter:  81  20:19:21  -6.17           -0.853646    33              +0.0000
iter:  82  20:19:22  -6.36           -0.853646    33              +0.0000
iter:  83  20:19:23  -6.61           -0.853646    33              +0.0000
iter:  84  20:19:23  -6.19           -0.853646    33              +0.0000
iter:  85  20:19:24  -6.10           -0.853646    33              +0.0000
iter:  86  20:19:25  -6.34           -0.853646    33              +0.0000
iter:  87  20:19:26  -6.39           -0.853646    33              +0.0000
iter:  88  20:19:27  -6.01           -0.853646    33              +0.0000
iter:  89  20:19:28  -6.41           -0.853646    33              +0.0000
iter:  90  20:19:28  -6.23           -0.853646    33              +0.0000
iter:  91  20:19:29  -6.30           -0.853646    33              +0.0000
iter:  92  20:19:30  -5.94           -0.853646    33              +0.0000
iter:  93  20:19:31  -5.90           -0.853646    33              +0.0000
iter:  94  20:19:32  -6.44           -0.853646    33              +0.0000
iter:  95  20:19:32  -5.53           -0.853646    33              +0.0000
iter:  96  20:19:33  -4.64           -0.853646    33              +0.0000
iter:  97  20:19:34  -5.90           -0.853646    33              +0.0000
iter:  98  20:19:35  -6.20           -0.853646    33              +0.0000
iter:  99  20:19:36  -6.34           -0.853646    33              +0.0000
iter: 100  20:19:36  -5.76           -0.853646    33              +0.0000
iter: 101  20:19:37  -6.39           -0.853646    33              +0.0000
iter: 102  20:19:38  -6.30           -0.853646    33              +0.0000
iter: 103  20:19:39  -5.63           -0.853646    33              +0.0000
iter: 104  20:19:40  -6.48           -0.853646    33              +0.0000
iter: 105  20:19:41  -6.24           -0.853646    33              +0.0000
iter: 106  20:19:41  -6.10           -0.853646    33              +0.0000
iter: 107  20:19:42  -6.38           -0.853646    33              +0.0000
iter: 108  20:19:43  -5.94           -0.853646    33              +0.0000
iter: 109  20:19:44  -5.78           -0.853646    33              +0.0000
iter: 110  20:19:45  -5.61           -0.853646    33              +0.0000
iter: 111  20:19:46  -5.61           -0.853646    33              +0.0000
iter: 112  20:19:46  -6.21           -0.853646    33              +0.0000
iter: 113  20:19:47  -6.23           -0.853646    33              +0.0000
iter: 114  20:19:48  -6.08           -0.853646    33              +0.0000
iter: 115  20:19:49  -6.31           -0.853646    33              +0.0000
iter: 116  20:19:50  -4.78           -0.853646    33              +0.0000
iter: 117  20:19:50  -6.19           -0.853646    33              +0.0000
iter: 118  20:19:51  -6.33           -0.853646    33              +0.0000
iter: 119  20:19:52  -6.25           -0.853646    33              +0.0000
iter: 120  20:19:53  -6.19           -0.853646    33              +0.0000
iter: 121  20:19:54  -6.53           -0.853646    33              +0.0000
iter: 122  20:19:54  -6.43           -0.853646    33              +0.0000
iter: 123  20:19:55  -6.72           -0.853646    33              +0.0000
iter: 124  20:19:56  -6.17           -0.853646    33              +0.0000
iter: 125  20:19:57  -6.61           -0.853646    33              +0.0000
iter: 126  20:19:58  -6.54           -0.853646    33              +0.0000
iter: 127  20:19:59  -6.38           -0.853646    33              +0.0000
iter: 128  20:19:59  -6.40           -0.853646    33              +0.0000
iter: 129  20:20:00  -6.50           -0.853646    33              +0.0000
iter: 130  20:20:01  -6.49           -0.853646    33              +0.0000
iter: 131  20:20:02  -6.29           -0.853646    33              +0.0000
iter: 132  20:20:03  -6.26           -0.853646    33              +0.0000
iter: 133  20:20:04  -6.78           -0.853646    33              +0.0000
iter: 134  20:20:04  -6.33           -0.853646    33              +0.0000
iter: 135  20:20:05  -6.48           -0.853646    33              +0.0000
iter: 136  20:20:06  -6.61           -0.853646    33              +0.0000
iter: 137  20:20:07  -6.17           -0.853646    33              +0.0000
iter: 138  20:20:08  -6.78           -0.853646    33              +0.0000
iter: 139  20:20:08  -6.43           -0.853646    33              +0.0000
iter: 140  20:20:09  -6.66           -0.853646    33              +0.0000
iter: 141  20:20:10  -6.43           -0.853646    33              +0.0000
iter: 142  20:20:11  -6.23           -0.853646    33              +0.0000
iter: 143  20:20:12  -6.68           -0.853646    33              +0.0000
iter: 144  20:20:13  -6.75           -0.853646    33              +0.0000
iter: 145  20:20:13  -6.41           -0.853646    33              +0.0000
iter: 146  20:20:14  -6.81           -0.853646    33              +0.0000
iter: 147  20:20:15  -6.56           -0.853646    33              +0.0000
iter: 148  20:20:16  -6.83           -0.853646    33              +0.0000
iter: 149  20:20:17  -6.50           -0.853646    33              +0.0000
iter: 150  20:20:18  -6.81           -0.853646    33              +0.0000
iter: 151  20:20:18  -6.63           -0.853646    33              +0.0000
iter: 152  20:20:19  -6.79           -0.853646    33              +0.0000
iter: 153  20:20:20  -6.57           -0.853646    33              +0.0000
iter: 154  20:20:21  -6.80           -0.853646    33              +0.0000
iter: 155  20:20:22  -6.71           -0.853646    33              +0.0000
iter: 156  20:20:22  -6.73           -0.853646    33              +0.0000
iter: 157  20:20:23  -6.60           -0.853646    33              +0.0000
iter: 158  20:20:24  -6.80           -0.853646    33              +0.0000
iter: 159  20:20:25  -6.70           -0.853646    33              +0.0000
iter: 160  20:20:26  -6.76           -0.853646    33              +0.0000
iter: 161  20:20:27  -6.81           -0.853646    33              +0.0000
iter: 162  20:20:27  -6.65           -0.853646    33              +0.0000
iter: 163  20:20:28  -6.62           -0.853646    33              +0.0000
iter: 164  20:20:29  -6.59           -0.853646    33              +0.0000
iter: 165  20:20:30  -6.64           -0.853646    33              +0.0000
iter: 166  20:20:31  -6.52           -0.853646    33              +0.0000
iter: 167  20:20:32  -6.85           -0.853646    33              +0.0000
iter: 168  20:20:32  -6.52           -0.853646    33              +0.0000
iter: 169  20:20:33  -6.86           -0.853646    33              +0.0000
iter: 170  20:20:34  -6.81           -0.853646    33              +0.0000
iter: 171  20:20:35  -6.74           -0.853646    33              +0.0000
iter: 172  20:20:36  -6.58           -0.853646    33              +0.0000
iter: 173  20:20:37  -6.69           -0.853646    33              +0.0000
iter: 174  20:20:37  -6.73           -0.853646    33              +0.0000
iter: 175  20:20:38  -6.30           -0.853646    33              +0.0000
iter: 176  20:20:39  -6.63           -0.853646    33              +0.0000
iter: 177  20:20:40  -6.83           -0.853646    33              +0.0000
iter: 178  20:20:41  -6.58           -0.853646    33              +0.0000
iter: 179  20:20:41  -6.83           -0.853646    33              +0.0000
iter: 180  20:20:42  -6.21           -0.853646    33              +0.0000
iter: 181  20:20:43  -6.38           -0.853646    33              +0.0000
iter: 182  20:20:44  -6.58           -0.853646    33              +0.0000
iter: 183  20:20:45  -6.79           -0.853646    33              +0.0000
iter: 184  20:20:46  -6.70           -0.853646    33              +0.0000
iter: 185  20:20:46  -6.76           -0.853646    33              +0.0000
iter: 186  20:20:47  -6.74           -0.853646    33              +0.0000
iter: 187  20:20:48  -6.74           -0.853646    33              +0.0000
iter: 188  20:20:49  -6.71           -0.853646    33              +0.0000
iter: 189  20:20:50  -6.57           -0.853646    33              +0.0000
iter: 190  20:20:50  -6.65           -0.853646    33              +0.0000
iter: 191  20:20:51  -6.68           -0.853646    33              +0.0000
iter: 192  20:20:52  -6.64           -0.853646    33              +0.0000
iter: 193  20:20:53  -6.55           -0.853646    33              +0.0000
iter: 194  20:20:54  -6.64           -0.853646    33              +0.0000
iter: 195  20:20:55  -6.23           -0.853646    33              +0.0000
iter: 196  20:20:55  -6.84           -0.853646    33              +0.0000
iter: 197  20:20:56  -6.74           -0.853646    33              +0.0000
iter: 198  20:20:57  -6.65           -0.853646    33              +0.0000
iter: 199  20:20:58  -6.68           -0.853646    33              +0.0000
iter: 200  20:20:59  -6.54           -0.853646    33              +0.0000
iter: 201  20:20:59  -6.64           -0.853646    33              +0.0000
iter: 202  20:21:00  -6.64           -0.853646    33              +0.0000
iter: 203  20:21:01  -6.18           -0.853646    33              +0.0000
iter: 204  20:21:02  -6.73           -0.853646    33              +0.0000
iter: 205  20:21:03  -6.63           -0.853646    33              +0.0000
iter: 206  20:21:04  -6.19           -0.853646    33              +0.0000
iter: 207  20:21:04  -6.82           -0.853646    33              +0.0000
iter: 208  20:21:05  -6.69           -0.853646    33              +0.0000
iter: 209  20:21:06  -6.15           -0.853646    33              +0.0000
iter: 210  20:21:07  -6.60           -0.853646    33              +0.0000
iter: 211  20:21:08  -6.82           -0.853646    33              +0.0000
iter: 212  20:21:08  -6.76           -0.853646    33              +0.0000
iter: 213  20:21:09  -6.63           -0.853646    33              +0.0000
iter: 214  20:21:10  -6.57           -0.853646    33              +0.0000
iter: 215  20:21:11  -6.41           -0.853646    33              +0.0000
iter: 216  20:21:12  -5.82           -0.853646    33              +0.0000
iter: 217  20:21:12  -6.51           -0.853646    33              +0.0000
iter: 218  20:21:13  -6.69           -0.853646    33              +0.0000
iter: 219  20:21:14  -6.69           -0.853646    33              +0.0000
iter: 220  20:21:15  -6.55           -0.853646    33              +0.0000
iter: 221  20:21:16  -6.62           -0.853646    33              +0.0000
iter: 222  20:21:16  -6.31           -0.853646    33              +0.0000
iter: 223  20:21:17  -6.66           -0.853646    33              +0.0000
iter: 224  20:21:18  -5.55           -0.853646    33              +0.0000
iter: 225  20:21:19  -6.51           -0.853646    33              +0.0000
iter: 226  20:21:20  -6.76           -0.853646    33              +0.0000
iter: 227  20:21:20  -6.37           -0.853646    33              +0.0000
iter: 228  20:21:21  -6.46           -0.853646    33              +0.0000
iter: 229  20:21:22  -6.60           -0.853646    33              +0.0000
iter: 230  20:21:23  -6.69           -0.853646    33              +0.0000
iter: 231  20:21:24  -6.19           -0.853646    33              +0.0000
iter: 232  20:21:24  -6.80           -0.853646    33              +0.0000
iter: 233  20:21:25  -6.90           -0.853646    33              +0.0000
iter: 234  20:21:26  -6.68           -0.853646    33              +0.0000
iter: 235  20:21:27  -6.94           -0.853646    33              +0.0000
iter: 236  20:21:28  -6.71           -0.853646    33              +0.0000
iter: 237  20:21:28  -6.80           -0.853646    33              +0.0000
iter: 238  20:21:29  -6.70           -0.853646    33              +0.0000
iter: 239  20:21:30  -6.62           -0.853646    33              +0.0000
iter: 240  20:21:31  -6.67           -0.853646    33              +0.0000
iter: 241  20:21:32  -6.85           -0.853646    33              +0.0000
iter: 242  20:21:32  -6.59           -0.853646    33              +0.0000
iter: 243  20:21:33  -6.81           -0.853646    33              +0.0000
iter: 244  20:21:34  -6.73           -0.853646    33              +0.0000
iter: 245  20:21:35  -6.67           -0.853646    33              +0.0000
iter: 246  20:21:36  -6.66           -0.853646    33              +0.0000
iter: 247  20:21:36  -6.80           -0.853646    33              +0.0000
iter: 248  20:21:37  -6.72           -0.853646    33              +0.0000
iter: 249  20:21:38  -6.80           -0.853646    33              +0.0000
iter: 250  20:21:39  -6.57           -0.853646    33              +0.0000
iter: 251  20:21:40  -6.65           -0.853646    33              +0.0000
iter: 252  20:21:40  -6.65           -0.853646    33              +0.0000
iter: 253  20:21:41  -6.93           -0.853646    33              +0.0000
iter: 254  20:21:42  -6.64           -0.853646    33              +0.0000
iter: 255  20:21:43  -6.37           -0.853646    33              +0.0000
iter: 256  20:21:43  -6.71           -0.853646    33              +0.0000
iter: 257  20:21:44  -6.92           -0.853646    33              +0.0000
iter: 258  20:21:45  -6.20           -0.853646    33              +0.0000
iter: 259  20:21:46  -6.57           -0.853646    33              +0.0000
iter: 260  20:21:47  -6.71           -0.853646    33              +0.0000
iter: 261  20:21:47  -6.84           -0.853646    33              +0.0000
iter: 262  20:21:48  -6.70           -0.853646    33              +0.0000
iter: 263  20:21:49  -6.95           -0.853646    33              +0.0000
iter: 264  20:21:50  -6.70           -0.853646    33              +0.0000
iter: 265  20:21:51  -6.88           -0.853646    33              +0.0000
iter: 266  20:21:51  -6.67           -0.853646    33              +0.0000
iter: 267  20:21:52  -6.79           -0.853646    33              +0.0000
iter: 268  20:21:53  -6.74           -0.853646    33              +0.0000
iter: 269  20:21:54  -6.60           -0.853646    33              +0.0000
iter: 270  20:21:55  -6.64           -0.853646    33              +0.0000
iter: 271  20:21:55  -6.89           -0.853646    33              +0.0000
iter: 272  20:21:56  -6.71           -0.853646    33              +0.0000
iter: 273  20:21:57  -6.89           -0.853646    33              +0.0000
iter: 274  20:21:58  -6.62           -0.853646    33              +0.0000
iter: 275  20:21:59  -6.85           -0.853646    33              +0.0000
iter: 276  20:21:59  -6.73           -0.853646    33              +0.0000
iter: 277  20:22:00  -6.96           -0.853646    33              +0.0000
iter: 278  20:22:01  -6.78           -0.853646    33              +0.0000
iter: 279  20:22:02  -6.80           -0.853646    33              +0.0000
iter: 280  20:22:02  -6.74           -0.853646    33              +0.0000
iter: 281  20:22:03  -6.77           -0.853646    33              +0.0000
iter: 282  20:22:04  -6.70           -0.853646    33              +0.0000
iter: 283  20:22:05  -6.79           -0.853646    33              +0.0000
iter: 284  20:22:06  -6.86           -0.853646    33              +0.0000
iter: 285  20:22:07  -6.47           -0.853646    33              +0.0000
iter: 286  20:22:07  -6.81           -0.853646    33              +0.0000
iter: 287  20:22:08  -6.79           -0.853646    33              +0.0000
iter: 288  20:22:09  -6.62           -0.853646    33              +0.0000
iter: 289  20:22:10  -6.62           -0.853646    33              +0.0000
iter: 290  20:22:11  -6.73           -0.853646    33              +0.0000
iter: 291  20:22:11  -6.71           -0.853646    33              +0.0000
iter: 292  20:22:12  -6.82           -0.853646    33              +0.0000
iter: 293  20:22:13  -6.57           -0.853646    33              +0.0000
iter: 294  20:22:14  -6.74           -0.853646    33              +0.0000
iter: 295  20:22:15  -6.83           -0.853646    33              +0.0000
iter: 296  20:22:15  -6.84           -0.853646    33              +0.0000
iter: 297  20:22:16  -6.59           -0.853646    33              +0.0000
iter: 298  20:22:17  -6.80           -0.853646    33              +0.0000
iter: 299  20:22:18  -6.81           -0.853646    33              +0.0000
iter: 300  20:22:18  -6.82           -0.853646    33              +0.0000
iter: 301  20:22:19  -6.61           -0.853646    33              +0.0000
iter: 302  20:22:20  -6.80           -0.853646    33              +0.0000
iter: 303  20:22:21  -6.70           -0.853646    33              +0.0000
iter: 304  20:22:22  -6.81           -0.853646    33              +0.0000
iter: 305  20:22:22  -6.57           -0.853646    33              +0.0000
iter: 306  20:22:23  -6.81           -0.853646    33              +0.0000
iter: 307  20:22:24  -6.72           -0.853646    33              +0.0000
iter: 308  20:22:25  -6.80           -0.853646    33              +0.0000
iter: 309  20:22:26  -6.49           -0.853646    33              +0.0000
iter: 310  20:22:26  -6.78           -0.853646    33              +0.0000
iter: 311  20:22:27  -6.82           -0.853646    33              +0.0000
iter: 312  20:22:28  -6.53           -0.853646    33              +0.0000
iter: 313  20:22:29  -6.76           -0.853646    33              +0.0000
iter: 314  20:22:30  -6.82           -0.853646    33              +0.0000
iter: 315  20:22:30  -5.15           -0.853646    33              +0.0000
iter: 316  20:22:31  -5.60           -0.853646    33              +0.0000
iter: 317  20:22:32  -6.68           -0.853646    33              +0.0000
iter: 318  20:22:33  -6.45           -0.853646    33              +0.0000
iter: 319  20:22:34  -5.75           -0.853646    33              +0.0000
iter: 320  20:22:34  -6.41           -0.853646    33              +0.0000
iter: 321  20:22:35  -6.63           -0.853646    33              +0.0000
iter: 322  20:22:36  -6.79           -0.853646    33              +0.0000
iter: 323  20:22:37  -6.98           -0.853646    33              +0.0000
iter: 324  20:22:37  -6.70           -0.853646    33              +0.0000
iter: 325  20:22:38  -6.97           -0.853646    33              +0.0000
iter: 326  20:22:39  -6.86           -0.853646    33              +0.0000
iter: 327  20:22:40  -6.61           -0.853646    33              +0.0000
iter: 328  20:22:41  -6.82           -0.853646    33              +0.0000
iter: 329  20:22:41  -6.93           -0.853646    33              +0.0000
iter: 330  20:22:42  -6.68           -0.853646    33              +0.0000
iter: 331  20:22:43  -6.80           -0.853646    33              +0.0000
iter: 332  20:22:44  -6.76           -0.853646    33              +0.0000
iter: 333  20:22:45  -6.68           -0.853646    33              +0.0000
iter: 334  20:22:45  -6.83           -0.853646    33              +0.0000
iter: 335  20:22:46  -6.99           -0.853646    33              +0.0000
iter: 336  20:22:47  -6.55           -0.853646    33              +0.0000
iter: 337  20:22:48  -6.74           -0.853646    33              +0.0000
iter: 338  20:22:48  -6.84           -0.853646    33              +0.0000
iter: 339  20:22:49  -6.80           -0.853646    33              +0.0000
iter: 340  20:22:50  -6.87           -0.853646    33              +0.0000
iter: 341  20:22:51  -6.95           -0.853646    33              +0.0000
iter: 342  20:22:52  -6.60           -0.853646    33              +0.0000
iter: 343  20:22:52  -6.97           -0.853646    33              +0.0000
iter: 344  20:22:53  -6.79           -0.853646    33              +0.0000
iter: 345  20:22:54  -6.87           -0.853646    33              +0.0000
iter: 346  20:22:55  -6.86           -0.853646    33              +0.0000
iter: 347  20:22:56  -6.98           -0.853646    33              +0.0000
iter: 348  20:22:56  -6.76           -0.853646    33              +0.0000
iter: 349  20:22:57  -7.02           -0.853646    33              +0.0000
iter: 350  20:22:58  -6.75           -0.853646    33              +0.0000
iter: 351  20:22:59  -6.94           -0.853646    33              +0.0000
iter: 352  20:23:00  -6.82           -0.853646    33              +0.0000
iter: 353  20:23:00  -7.00           -0.853646    33              +0.0000
iter: 354  20:23:01  -6.86           -0.853646    33              +0.0000
iter: 355  20:23:02  -7.04           -0.853646    33              +0.0000
iter: 356  20:23:03  -6.85           -0.853646    33              +0.0000
iter: 357  20:23:04  -6.88           -0.853646    33              +0.0000
iter: 358  20:23:04  -6.90           -0.853646    33              +0.0000
iter: 359  20:23:05  -7.03           -0.853646    33              +0.0000
iter: 360  20:23:06  -6.81           -0.853646    33              +0.0000
iter: 361  20:23:07  -6.97           -0.853646    33              +0.0000
iter: 362  20:23:08  -6.83           -0.853646    33              +0.0000
iter: 363  20:23:08  -6.92           -0.853646    33              +0.0000
iter: 364  20:23:09  -6.87           -0.853646    33              +0.0000
iter: 365  20:23:10  -7.06           -0.853646    33              +0.0000
iter: 366  20:23:11  -6.60           -0.853646    33              +0.0000
iter: 367  20:23:12  -7.06           -0.853646    33              +0.0000
iter: 368  20:23:12  -6.88           -0.853646    33              +0.0000
iter: 369  20:23:13  -6.90           -0.853646    33              +0.0000
iter: 370  20:23:14  -6.86           -0.853646    33              +0.0000
iter: 371  20:23:15  -6.97           -0.853646    33              +0.0000
iter: 372  20:23:16  -6.77           -0.853646    33              +0.0000
iter: 373  20:23:16  -6.91           -0.853646    33              +0.0000
iter: 374  20:23:17  -6.58           -0.853646    33              +0.0000
iter: 375  20:23:18  -6.93           -0.853646    33              +0.0000
iter: 376  20:23:19  -6.77           -0.853646    33              +0.0000
iter: 377  20:23:20  -6.86           -0.853646    33              +0.0000
iter: 378  20:23:20  -6.78           -0.853646    33              +0.0000
iter: 379  20:23:21  -6.97           -0.853646    33              +0.0000
iter: 380  20:23:22  -6.78           -0.853646    33              +0.0000
iter: 381  20:23:23  -6.68           -0.853646    33              +0.0000
iter: 382  20:23:24  -6.76           -0.853646    33              +0.0000
iter: 383  20:23:24  -7.04           -0.853646    33              +0.0000
iter: 384  20:23:25  -6.13           -0.853646    33              +0.0000
iter: 385  20:23:26  -6.89           -0.853646    33              +0.0000
iter: 386  20:23:27  -6.61           -0.853646    33              +0.0000
iter: 387  20:23:28  -6.70           -0.853646    33              +0.0000
iter: 388  20:23:28  -6.96           -0.853646    33              +0.0000
iter: 389  20:23:29  -7.01           -0.853646    33              +0.0000
iter: 390  20:23:30  -6.83           -0.853646    33              +0.0000
iter: 391  20:23:31  -7.02           -0.853646    33              +0.0000
iter: 392  20:23:32  -6.93           -0.853646    33              +0.0000
iter: 393  20:23:32  -6.84           -0.853646    33              +0.0000
iter: 394  20:23:33  -6.89           -0.853646    33              +0.0000
iter: 395  20:23:34  -7.12           -0.853646    33              +0.0000
iter: 396  20:23:35  -6.62           -0.853646    33              +0.0000
iter: 397  20:23:36  -7.07           -0.853646    33              +0.0000
iter: 398  20:23:36  -6.91           -0.853646    33              +0.0000
iter: 399  20:23:37  -6.87           -0.853646    33              +0.0000
iter: 400  20:23:38  -6.85           -0.853646    33              +0.0000
iter: 401  20:23:39  -7.09           -0.853646    33              +0.0000
iter: 402  20:23:40  -6.79           -0.853646    33              +0.0000
iter: 403  20:23:40  -6.97           -0.853646    33              +0.0000
iter: 404  20:23:41  -6.95           -0.853646    33              +0.0000
iter: 405  20:23:42  -6.90           -0.853646    33              +0.0000
iter: 406  20:23:43  -6.88           -0.853646    33              +0.0000
iter: 407  20:23:44  -7.01           -0.853646    33              +0.0000
iter: 408  20:23:44  -6.87           -0.853646    33              +0.0000
iter: 409  20:23:45  -6.92           -0.853646    33              +0.0000
iter: 410  20:23:46  -6.94           -0.853646    33              +0.0000
iter: 411  20:23:47  -6.95           -0.853646    33              +0.0000
iter: 412  20:23:48  -6.93           -0.853646    33              +0.0000
iter: 413  20:23:48  -7.09           -0.853646    33              +0.0000
iter: 414  20:23:49  -6.78           -0.853646    33              +0.0000
iter: 415  20:23:50  -7.10           -0.853646    33              +0.0000
iter: 416  20:23:51  -6.97           -0.853646    33              +0.0000
iter: 417  20:23:51  -6.81           -0.853646    33              +0.0000
iter: 418  20:23:52  -6.98           -0.853646    33              +0.0000
iter: 419  20:23:53  -7.09           -0.853646    33              +0.0000
iter: 420  20:23:54  -6.86           -0.853646    33              +0.0000
iter: 421  20:23:55  -7.03           -0.853646    33              +0.0000
iter: 422  20:23:56  -6.97           -0.853646    33              +0.0000
iter: 423  20:23:56  -7.01           -0.853646    33              +0.0000
iter: 424  20:23:57  -6.77           -0.853646    33              +0.0000
iter: 425  20:23:58  -7.15           -0.853646    33              +0.0000
iter: 426  20:23:59  -6.87           -0.853646    33              +0.0000
iter: 427  20:24:00  -7.12           -0.853646    33              +0.0000
iter: 428  20:24:00  -6.95           -0.853646    33              +0.0000
iter: 429  20:24:01  -6.91           -0.853646    33              +0.0000
iter: 430  20:24:02  -6.96           -0.853646    33              +0.0000
iter: 431  20:24:03  -7.07           -0.853646    33              +0.0000
iter: 432  20:24:04  -6.72           -0.853646    33              +0.0000
iter: 433  20:24:04  -7.10           -0.853646    33              +0.0000
iter: 434  20:24:05  -6.97           -0.853646    33              +0.0000
iter: 435  20:24:06  -6.93           -0.853646    33              +0.0000
iter: 436  20:24:07  -6.96           -0.853646    33              +0.0000
iter: 437  20:24:08  -7.13           -0.853646    33              +0.0000
iter: 438  20:24:08  -6.85           -0.853646    33              +0.0000
iter: 439  20:24:09  -7.13           -0.853646    33              +0.0000
iter: 440  20:24:10  -6.96           -0.853646    33              +0.0000
iter: 441  20:24:11  -6.98           -0.853646    33              +0.0000
iter: 442  20:24:12  -6.98           -0.853646    33              +0.0000
iter: 443  20:24:12  -6.37           -0.853646    33              +0.0000
iter: 444  20:24:13  -6.86           -0.853646    33              +0.0000
iter: 445  20:24:14  -6.65           -0.853646    33              +0.0000
iter: 446  20:24:15  -6.99           -0.853646    33              +0.0000
iter: 447  20:24:16  -7.02           -0.853646    33              +0.0000
iter: 448  20:24:16  -6.73           -0.853646    33              +0.0000
iter: 449  20:24:17  -7.04           -0.853646    33              +0.0000
iter: 450  20:24:18  -6.84           -0.853646    33              +0.0000
iter: 451  20:24:19  -7.02           -0.853646    33              +0.0000
iter: 452  20:24:20  -7.00           -0.853646    33              +0.0000
iter: 453  20:24:21  -6.89           -0.853646    33              +0.0000
iter: 454  20:24:21  -6.95           -0.853646    33              +0.0000
iter: 455  20:24:22  -7.14           -0.853646    33              +0.0000
iter: 456  20:24:23  -6.79           -0.853646    33              +0.0000
iter: 457  20:24:24  -6.96           -0.853646    33              +0.0000
iter: 458  20:24:24  -6.82           -0.853646    33              +0.0000
iter: 459  20:24:25  -6.88           -0.853646    33              +0.0000
iter: 460  20:24:26  -7.00           -0.853646    33              +0.0000
iter: 461  20:24:27  -7.12           -0.853646    33              +0.0000
iter: 462  20:24:28  -6.87           -0.853646    33              +0.0000
iter: 463  20:24:29  -6.84           -0.853646    33              +0.0000
iter: 464  20:24:29  -6.98           -0.853646    33              +0.0000
iter: 465  20:24:30  -6.98           -0.853646    33              +0.0000
iter: 466  20:24:31  -7.00           -0.853646    33              +0.0000
iter: 467  20:24:32  -7.12           -0.853646    33              +0.0000
iter: 468  20:24:33  -6.91           -0.853646    33              +0.0000
iter: 469  20:24:33  -7.14           -0.853646    33              +0.0000
iter: 470  20:24:34  -6.91           -0.853646    33              +0.0000
iter: 471  20:24:35  -7.01           -0.853646    33              +0.0000
iter: 472  20:24:36  -6.99           -0.853646    33              +0.0000
iter: 473  20:24:37  -7.13           -0.853646    33              +0.0000
iter: 474  20:24:37  -6.80           -0.853646    33              +0.0000
iter: 475  20:24:38  -7.18           -0.853646    33              +0.0000
iter: 476  20:24:39  -6.98           -0.853646    33              +0.0000
iter: 477  20:24:40  -6.98           -0.853646    33              +0.0000
iter: 478  20:24:41  -6.87           -0.853646    33              +0.0000
iter: 479  20:24:41  -7.20           -0.853646    33              +0.0000
iter: 480  20:24:42  -6.84           -0.853646    33              +0.0000
iter: 481  20:24:43  -7.17           -0.853646    33              +0.0000
iter: 482  20:24:44  -6.86           -0.853646    33              +0.0000
iter: 483  20:24:45  -7.01           -0.853646    33              +0.0000
iter: 484  20:24:45  -7.01           -0.853646    33              +0.0000
iter: 485  20:24:46  -6.89           -0.853646    33              +0.0000
iter: 486  20:24:47  -6.90           -0.853646    33              +0.0000
iter: 487  20:24:48  -7.19           -0.853646    33              +0.0000
iter: 488  20:24:49  -6.62           -0.853646    33              +0.0000
iter: 489  20:24:49  -7.05           -0.853646    33              +0.0000
iter: 490  20:24:50  -7.00           -0.853646    33              +0.0000
iter: 491  20:24:51  -6.84           -0.853646    33              +0.0000
iter: 492  20:24:52  -6.90           -0.853646    33              +0.0000
iter: 493  20:24:53  -7.18           -0.853646    33              +0.0000
iter: 494  20:24:53  -6.79           -0.853646    33              +0.0000
iter: 495  20:24:54  -7.02           -0.853646    33              +0.0000
iter: 496  20:24:55  -7.01           -0.853646    33              +0.0000
iter: 497  20:24:56  -7.19           -0.853646    33              +0.0000
iter: 498  20:24:57  -6.77           -0.853646    33              +0.0000
iter: 499  20:24:57  -7.18           -0.853646    33              +0.0000
iter: 500  20:24:58  -7.02           -0.853646    33              +0.0000
iter: 501  20:24:59  -6.56           -0.853646    33              +0.0000
iter: 502  20:25:00  -7.02           -0.853646    33              +0.0000
iter: 503  20:25:01  -7.21           -0.853646    33              +0.0000
iter: 504  20:25:01  -6.91           -0.853646    33              +0.0000
iter: 505  20:25:02  -7.14           -0.853646    33              +0.0000
iter: 506  20:25:03  -7.03           -0.853646    33              +0.0000
iter: 507  20:25:04  -6.77           -0.853646    33              +0.0000
iter: 508  20:25:05  -7.03           -0.853646    33              +0.0000
iter: 509  20:25:05  -7.08           -0.853646    33              +0.0000
iter: 510  20:25:06  -6.92           -0.853646    33              +0.0000
iter: 511  20:25:07  -7.02           -0.853646    33              +0.0000
iter: 512  20:25:08  -7.04           -0.853646    33              +0.0000
iter: 513  20:25:09  -7.03           -0.853646    33              +0.0000
iter: 514  20:25:09  -7.03           -0.853646    33              +0.0000
iter: 515  20:25:10  -6.74           -0.853646    33              +0.0000
iter: 516  20:25:11  -6.90           -0.853646    33              +0.0000
iter: 517  20:25:12  -7.11           -0.853646    33              +0.0000
iter: 518  20:25:13  -7.04           -0.853646    33              +0.0000
iter: 519  20:25:13  -6.90           -0.853646    33              +0.0000
iter: 520  20:25:14  -7.02           -0.853646    33              +0.0000
iter: 521  20:25:15  -7.23           -0.853646    33              +0.0000
iter: 522  20:25:16  -6.84           -0.853646    33              +0.0000
iter: 523  20:25:17  -7.20           -0.853646    33              +0.0000
iter: 524  20:25:17  -7.04           -0.853646    33              +0.0000
iter: 525  20:25:18  -7.00           -0.853646    33              +0.0000
iter: 526  20:25:19  -7.03           -0.853646    33              +0.0000
iter: 527  20:25:20  -7.22           -0.853646    33              +0.0000
iter: 528  20:25:21  -6.90           -0.853646    33              +0.0000
iter: 529  20:25:21  -7.20           -0.853646    33              +0.0000
iter: 530  20:25:22  -7.04           -0.853646    33              +0.0000
iter: 531  20:25:23  -7.02           -0.853646    33              +0.0000
iter: 532  20:25:24  -7.06           -0.853646    33              +0.0000
iter: 533  20:25:25  -7.18           -0.853646    33              +0.0000
iter: 534  20:25:25  -7.01           -0.853646    33              +0.0000
iter: 535  20:25:26  -7.16           -0.853646    33              +0.0000
iter: 536  20:25:27  -7.04           -0.853646    33              +0.0000
iter: 537  20:25:28  -7.11           -0.853646    33              +0.0000
iter: 538  20:25:28  -7.00           -0.853646    33              +0.0000
iter: 539  20:25:29  -7.25           -0.853646    33              +0.0000
iter: 540  20:25:30  -6.92           -0.853646    33              +0.0000
iter: 541  20:25:31  -7.23           -0.853646    33              +0.0000
iter: 542  20:25:32  -7.02           -0.853646    33              +0.0000
iter: 543  20:25:32  -7.09           -0.853646    33              +0.0000
iter: 544  20:25:33  -7.07           -0.853646    33              +0.0000
iter: 545  20:25:34  -7.09           -0.853646    33              +0.0000
iter: 546  20:25:35  -6.91           -0.853646    33              +0.0000
iter: 547  20:25:36  -7.26           -0.853646    33              +0.0000
iter: 548  20:25:36  -7.00           -0.853646    33              +0.0000
iter: 549  20:25:37  -7.05           -0.853646    33              +0.0000
iter: 550  20:25:38  -6.98           -0.853646    33              +0.0000
iter: 551  20:25:39  -7.28           -0.853646    33              +0.0000
iter: 552  20:25:40  -6.85           -0.853646    33              +0.0000
iter: 553  20:25:40  -7.27           -0.853646    33              +0.0000
iter: 554  20:25:41  -7.00           -0.853646    33              +0.0000
iter: 555  20:25:42  -7.13           -0.853646    33              +0.0000
iter: 556  20:25:43  -6.93           -0.853646    33              +0.0000
iter: 557  20:25:44  -7.31           -0.853646    33              +0.0000
iter: 558  20:25:44  -6.91           -0.853646    33              +0.0000
iter: 559  20:25:45  -7.24           -0.853646    33              +0.0000
iter: 560  20:25:46  -7.09           -0.853646    33              +0.0000
iter: 561  20:25:47  -7.11           -0.853646    33              +0.0000
iter: 562  20:25:48  -7.08           -0.853646    33              +0.0000
iter: 563  20:25:48  -7.21           -0.853646    33              +0.0000
iter: 564  20:25:49  -6.99           -0.853646    33              +0.0000
iter: 565  20:25:50  -7.30           -0.853646    33              +0.0000
iter: 566  20:25:51  -7.01           -0.853646    33              +0.0000
iter: 567  20:25:51  -7.15           -0.853646    33              +0.0000
iter: 568  20:25:52  -7.09           -0.853646    33              +0.0000
iter: 569  20:25:53  -7.09           -0.853646    33              +0.0000
iter: 570  20:25:54  -6.99           -0.853646    33              +0.0000
iter: 571  20:25:55  -7.30           -0.853646    33              +0.0000
iter: 572  20:25:56  -6.92           -0.853646    33              +0.0000
iter: 573  20:25:56  -7.09           -0.853646    33              +0.0000
iter: 574  20:25:57  -7.08           -0.853646    33              +0.0000
iter: 575  20:25:58  -7.24           -0.853646    33              +0.0000
iter: 576  20:25:59  -6.94           -0.853646    33              +0.0000
iter: 577  20:25:59  -7.10           -0.853646    33              +0.0000
iter: 578  20:26:00  -7.08           -0.853646    33              +0.0000
iter: 579  20:26:01  -7.13           -0.853646    33              +0.0000
iter: 580  20:26:02  -6.88           -0.853646    33              +0.0000
iter: 581  20:26:03  -7.30           -0.853646    33              +0.0000
iter: 582  20:26:03  -6.98           -0.853646    33              +0.0000
iter: 583  20:26:04  -7.11           -0.853646    33              +0.0000
iter: 584  20:26:05  -7.11           -0.853646    33              +0.0000
iter: 585  20:26:06  -7.13           -0.853646    33              +0.0000
iter: 586  20:26:07  -7.04           -0.853646    33              +0.0000
iter: 587  20:26:07  -7.31           -0.853646    33              +0.0000
iter: 588  20:26:08  -6.99           -0.853646    33              +0.0000
iter: 589  20:26:09  -6.53           -0.853646    33              +0.0000
iter: 590  20:26:10  -7.00           -0.853646    33              +0.0000
iter: 591  20:26:10  -7.20           -0.853646    33              +0.0000
iter: 592  20:26:11  -6.62           -0.853646    33              +0.0000
iter: 593  20:26:12  -6.12           -0.853646    33              +0.0000
iter: 594  20:26:13  -6.65           -0.853646    33              +0.0000
iter: 595  20:26:14  -7.11           -0.853646    33              +0.0000
iter: 596  20:26:14  -7.11           -0.853646    33              +0.0000
iter: 597  20:26:15  -7.12           -0.853646    33              +0.0000
iter: 598  20:26:16  -6.02           -0.853646    33              +0.0000
iter: 599  20:26:17  -7.31           -0.853646    33              +0.0000
iter: 600  20:26:18  -7.07           -0.853646    33              +0.0000
iter: 601  20:26:18  -7.11           -0.853646    33              +0.0000
iter: 602  20:26:19  -6.96           -0.853646    33              +0.0000
iter: 603  20:26:20  -7.30           -0.853646    33              +0.0000
iter: 604  20:26:21  -6.64           -0.853646    33              +0.0000
iter: 605  20:26:21  -7.24           -0.853646    33              +0.0000
iter: 606  20:26:22  -7.05           -0.853646    33              +0.0000
iter: 607  20:26:23  -6.99           -0.853646    33              +0.0000
iter: 608  20:26:24  -7.11           -0.853646    33              +0.0000
iter: 609  20:26:25  -7.34           -0.853646    33              +0.0000
iter: 610  20:26:25  -7.05           -0.853646    33              +0.0000
iter: 611  20:26:26  -7.10           -0.853646    33              +0.0000
iter: 612  20:26:27  -7.11           -0.853646    33              +0.0000
iter: 613  20:26:28  -7.25           -0.853646    33              +0.0000
iter: 614  20:26:29  -6.73           -0.853646    33              +0.0000
iter: 615  20:26:29  -7.27           -0.853646    33              +0.0000
iter: 616  20:26:30  -7.13           -0.853646    33              +0.0000
iter: 617  20:26:31  -7.27           -0.853646    33              +0.0000
iter: 618  20:26:32  -7.10           -0.853646    33              +0.0000
iter: 619  20:26:33  -7.22           -0.853646    33              +0.0000
iter: 620  20:26:33  -7.13           -0.853646    33              +0.0000
iter: 621  20:26:34  -7.24           -0.853646    33              +0.0000
iter: 622  20:26:35  -7.09           -0.853646    33              +0.0000
iter: 623  20:26:36  -7.30           -0.853646    33              +0.0000
iter: 624  20:26:37  -7.07           -0.853646    33              +0.0000
iter: 625  20:26:37  -7.26           -0.853646    33              +0.0000
iter: 626  20:26:38  -6.94           -0.853646    33              +0.0000
iter: 627  20:26:39  -7.04           -0.853646    33              +0.0000
iter: 628  20:26:40  -7.08           -0.853646    33              +0.0000
iter: 629  20:26:41  -6.83           -0.853646    33              +0.0000
iter: 630  20:26:41  -7.09           -0.853646    33              +0.0000
iter: 631  20:26:42  -7.25           -0.853646    33              +0.0000
iter: 632  20:26:43  -6.58           -0.853646    33              +0.0000
iter: 633  20:26:44  -7.12           -0.853646    33              +0.0000
iter: 634  20:26:44  -7.11           -0.853646    33              +0.0000
iter: 635  20:26:45  -7.22           -0.853646    33              +0.0000
iter: 636  20:26:46  -6.85           -0.853646    33              +0.0000
iter: 637  20:26:47  -7.32           -0.853646    33              +0.0000
iter: 638  20:26:48  -7.15           -0.853646    33              +0.0000
iter: 639  20:26:48  -7.28           -0.853646    33              +0.0000
iter: 640  20:26:49  -7.11           -0.853646    33              +0.0000
iter: 641  20:26:50  -7.36           -0.853646    33              +0.0000
iter: 642  20:26:51  -6.85           -0.853646    33              +0.0000
iter: 643  20:26:52  -7.37           -0.853646    33              +0.0000
iter: 644  20:26:52  -7.15           -0.853646    33              +0.0000
iter: 645  20:26:53  -7.38           -0.853646    33              +0.0000
iter: 646  20:26:54  -7.15           -0.853646    33              +0.0000
iter: 647  20:26:55  -7.37           -0.853646    33              +0.0000
iter: 648  20:26:56  -7.13           -0.853646    33              +0.0000
iter: 649  20:26:56  -7.26           -0.853646    33              +0.0000
iter: 650  20:26:57  -7.10           -0.853646    33              +0.0000
iter: 651  20:26:58  -7.29           -0.853646    33              +0.0000
iter: 652  20:26:59  -6.94           -0.853646    33              +0.0000
iter: 653  20:27:00  -7.26           -0.853646    33              +0.0000
iter: 654  20:27:00  -7.16           -0.853646    33              +0.0000
iter: 655  20:27:01  -7.17           -0.853646    33              +0.0000
iter: 656  20:27:02  -7.14           -0.853646    33              +0.0000
iter: 657  20:27:03  -6.93           -0.853646    33              +0.0000
iter: 658  20:27:03  -6.56           -0.853646    33              +0.0000
iter: 659  20:27:04  -7.11           -0.853646    33              +0.0000
iter: 660  20:27:05  -7.14           -0.853646    33              +0.0000
iter: 661  20:27:06  -7.38           -0.853646    33              +0.0000
iter: 662  20:27:07  -7.12           -0.853646    33              +0.0000
iter: 663  20:27:07  -7.37           -0.853646    33              +0.0000
iter: 664  20:27:08  -7.16           -0.853646    33              +0.0000
iter: 665  20:27:09  -7.25           -0.853646    33              +0.0000
iter: 666  20:27:10  -7.16           -0.853646    33              +0.0000
iter: 667  20:27:11  -7.39           -0.853646    33              +0.0000
iter: 668  20:27:11  -7.09           -0.853646    33              +0.0000
iter: 669  20:27:12  -7.38           -0.853646    33              +0.0000
iter: 670  20:27:13  -7.17           -0.853646    33              +0.0000
iter: 671  20:27:14  -7.28           -0.853646    33              +0.0000
iter: 672  20:27:15  -7.16           -0.853646    33              +0.0000
iter: 673  20:27:15  -7.40           -0.853646    33              +0.0000
iter: 674  20:27:16  -7.08           -0.853646    33              +0.0000
iter: 675  20:27:17  -7.39           -0.853646    33              +0.0000
iter: 676  20:27:18  -7.17           -0.853646    33              +0.0000
iter: 677  20:27:19  -7.37           -0.853646    33              +0.0000
iter: 678  20:27:19  -6.94           -0.853646    33              +0.0000
iter: 679  20:27:20  -7.12           -0.853646    33              +0.0000
iter: 680  20:27:21  -7.17           -0.853646    33              +0.0000
iter: 681  20:27:22  -7.37           -0.853646    33              +0.0000
iter: 682  20:27:23  -7.16           -0.853646    33              +0.0000
iter: 683  20:27:23  -6.93           -0.853646    33              +0.0000
iter: 684  20:27:24  -7.18           -0.853646    33              +0.0000
iter: 685  20:27:25  -7.27           -0.853646    33              +0.0000
iter: 686  20:27:26  -6.92           -0.853646    33              +0.0000
iter: 687  20:27:27  -6.48           -0.853646    33              +0.0000
iter: 688  20:27:27  -5.85           -0.853646    33              +0.0000
iter: 689  20:27:28  -6.57           -0.853646    33              +0.0000
iter: 690  20:27:29  -6.64           -0.853646    33              +0.0000
iter: 691  20:27:30  -7.11           -0.853646    33              +0.0000
iter: 692  20:27:31  -7.18           -0.853646    33              +0.0000
iter: 693  20:27:31  -7.42           -0.853646    33              +0.0000

Converged after 693 iterations.

Dipole moment: (-0.000000, -0.000000, -0.000000) |e|*Ang

Total magnetic moment: 0.000001
Local magnetic moments:
   0 Se 0.000005

Energy contributions relative to reference atoms: (reference = -66103.532131)

Kinetic:         +4.400185
Potential:       -2.071256
External:        +0.000000
XC:              -3.121931
Entropy (-ST):   -0.001509
Local:           -0.059890
--------------------------
Free energy:     -0.854401
Extrapolated:    -0.853646

Spin contamination: 0.000006 electrons
Fixed Fermi level: 7.95879

Warning: Showing only first 2 kpts
                      Up                     Down
 Kpt  Band  Eigenvalues  Occupancy  Eigenvalues  Occupancy
  0     1     10.85020    0.00000     10.85020    0.00000
  0     2     10.85060    0.00000     10.85060    0.00000
  0     3     10.85060    0.00000     10.85060    0.00000
  0     4     19.03228    0.00000     19.03227    0.00000

  1     1     10.59518    0.00000     10.59518    0.00000
  1     2     10.73467    0.00000     10.73468    0.00000
  1     3     10.73499    0.00000     10.73500    0.00000
  1     4     19.29369    0.00000     19.29368    0.00000


Timing:                              incl.     excl.
-----------------------------------------------------------
Hamiltonian:                         0.581     0.002   0.0% |
 Atomic:                             0.460     0.002   0.0% |
  XC Correction:                     0.458     0.458   0.1% |
 Calculate atomic Hamiltonians:      0.006     0.006   0.0% |
 Communicate:                        0.000     0.000   0.0% |
 Initialize Hamiltonian:             0.000     0.000   0.0% |
 Poisson:                            0.000     0.000   0.0% |
 XC 3D grid:                         0.113     0.113   0.0% |
LCAO initialization:                 1.660     0.053   0.0% |
 LCAO eigensolver:                   0.909     0.013   0.0% |
  Calculate projections:             0.004     0.004   0.0% |
  DenseAtomicCorrection:             0.025     0.025   0.0% |
  Distribute overlap matrix:         0.005     0.005   0.0% |
  Orbital Layouts:                   0.025     0.025   0.0% |
  Potential matrix:                  0.125     0.125   0.0% |
  Sum over cells:                    0.712     0.712   0.1% |
 LCAO to grid:                       0.354     0.354   0.1% |
 Set positions (LCAO WFS):           0.345     0.001   0.0% |
  Basic WFS set positions:           0.002     0.002   0.0% |
  Basis functions set positions:     0.000     0.000   0.0% |
  TCI: Calculate S, T, P:            0.343     0.343   0.1% |
PWDescriptor:                        0.018     0.018   0.0% |
Redistribute:                        0.000     0.000   0.0% |
SCF-cycle:                         599.705   242.285  40.1% |---------------|
 CG:                               172.621   153.678  25.4% |---------|
  CG: orthonormalize:               18.944    10.972   1.8% ||
   CG: overlap:                      4.954     4.954   0.8% |
   CG: overlap2:                     3.018     3.018   0.5% |
 Davidson:                           4.501     2.771   0.5% |
  calc. matrices:                    1.165     1.165   0.2% |
  diagonalize:                       0.325     0.325   0.1% |
  rotate_psi:                        0.240     0.240   0.0% |
 Density:                            1.270     0.001   0.0% |
  Atomic density matrices:           0.095     0.095   0.0% |
  Mix:                               0.098     0.098   0.0% |
  Multipole moments:                 0.004     0.004   0.0% |
  Pseudo density:                    1.072     0.628   0.1% |
   Symmetrize density:               0.444     0.444   0.1% |
 Hamiltonian:                        4.838     0.010   0.0% |
  Atomic:                            3.900     0.016   0.0% |
   XC Correction:                    3.884     3.884   0.6% |
  Calculate atomic Hamiltonians:     0.043     0.043   0.0% |
  Communicate:                       0.000     0.000   0.0% |
  Poisson:                           0.004     0.004   0.0% |
  XC 3D grid:                        0.880     0.880   0.1% |
 Orthonormalize:                     0.141     0.011   0.0% |
  Band Layouts:                      0.008     0.003   0.0% |
   Inverse Cholesky:                 0.005     0.005   0.0% |
  calc_s_matrix:                     0.023     0.023   0.0% |
  projections:                       0.080     0.080   0.0% |
  rotate_psi:                        0.019     0.019   0.0% |
 Residuals:                         49.494    49.494   8.2% |--|
 Subspace diag:                    124.555     8.058   1.3% ||
  Band Layouts:                     15.345     2.358   0.4% |
   Diagonalize:                     11.341    11.341   1.9% ||
   Distribute results:               1.646     1.646   0.3% |
  calc_h_matrix:                    84.961    84.961  14.1% |-----|
  rotate_psi:                       16.191    16.191   2.7% ||
Set symmetry:                        0.112     0.112   0.0% |
Other:                               2.323     2.323   0.4% |
-----------------------------------------------------------
Total:                                       604.400 100.0%

Date: Thu Feb 11 20:27:32 2021
element =  Se
struct =  bcc
kpts =  (8,8,8)
element =  Se
configuration =  [Ar] 3d10 4s2 4p4 4d0
valence =  ['4s', '4p', '4d']
occupations =  {'4s': 2, '4p': 4, '4d': 0}
nls =  4p
rNum =  600
lmax =  d
*******************************************
Starting confinement parameter optimization
Adjustable parameters and initial values:
  Se_4d.r0 : 4.535343
  Se_4p.r0 : 4.535343
  Se_4s.r0 : 4.535343
  Se_n.r0 : 6.803014
*******************************************

OPT_VAL: 4.535342702008628   4.535342702008628   4.535342702008628   6.803014053012943
VCONF:
  Se_4d : PowerConfinement(r0=4.535343, s=2.000000)
  Se_4p : PowerConfinement(r0=4.535343, s=2.000000)
  Se_4s : PowerConfinement(r0=4.535343, s=2.000000)
  Se_n : PowerConfinement(r0=6.803014, s=2.000000)
RESIDUAL: 0.0

OPT_VAL: 4.735342702008628   4.535342702008628   4.535342702008628   6.803014053012943
VCONF:
  Se_4d : PowerConfinement(r0=4.735343, s=2.000000)
  Se_4p : PowerConfinement(r0=4.535343, s=2.000000)
  Se_4s : PowerConfinement(r0=4.535343, s=2.000000)
  Se_n : PowerConfinement(r0=6.803014, s=2.000000)
RESIDUAL: 0.0

OPT_VAL: 4.535342702008628   4.735342702008628   4.535342702008628   6.803014053012943
VCONF:
  Se_4d : PowerConfinement(r0=4.535343, s=2.000000)
  Se_4p : PowerConfinement(r0=4.735343, s=2.000000)
  Se_4s : PowerConfinement(r0=4.535343, s=2.000000)
  Se_n : PowerConfinement(r0=6.803014, s=2.000000)
RESIDUAL: 0.0

OPT_VAL: 4.535342702008628   4.535342702008628   4.735342702008628   6.803014053012943
VCONF:
  Se_4d : PowerConfinement(r0=4.535343, s=2.000000)
  Se_4p : PowerConfinement(r0=4.535343, s=2.000000)
  Se_4s : PowerConfinement(r0=4.735343, s=2.000000)
  Se_n : PowerConfinement(r0=6.803014, s=2.000000)
RESIDUAL: 0.0

OPT_VAL: 4.535342702008628   4.535342702008628   4.535342702008628   7.003014053012943
VCONF:
  Se_4d : PowerConfinement(r0=4.535343, s=2.000000)
  Se_4p : PowerConfinement(r0=4.535343, s=2.000000)
  Se_4s : PowerConfinement(r0=4.535343, s=2.000000)
  Se_n : PowerConfinement(r0=7.003014, s=2.000000)
RESIDUAL: 0.0

OPT_VAL: 4.5603427020086285   4.535342702008628   4.535342702008628   6.803014053012943
VCONF:
  Se_4d : PowerConfinement(r0=4.560343, s=2.000000)
  Se_4p : PowerConfinement(r0=4.535343, s=2.000000)
  Se_4s : PowerConfinement(r0=4.535343, s=2.000000)
  Se_n : PowerConfinement(r0=6.803014, s=2.000000)
RESIDUAL: 0.0

OPT_VAL: 4.535342702008628   4.5603427020086285   4.535342702008628   6.803014053012943
VCONF:
  Se_4d : PowerConfinement(r0=4.535343, s=2.000000)
  Se_4p : PowerConfinement(r0=4.560343, s=2.000000)
  Se_4s : PowerConfinement(r0=4.535343, s=2.000000)
  Se_n : PowerConfinement(r0=6.803014, s=2.000000)
RESIDUAL: 0.0

OPT_VAL: 4.535342702008628   4.535342702008628   4.5603427020086285   6.803014053012943
VCONF:
  Se_4d : PowerConfinement(r0=4.535343, s=2.000000)
  Se_4p : PowerConfinement(r0=4.535343, s=2.000000)
  Se_4s : PowerConfinement(r0=4.560343, s=2.000000)
  Se_n : PowerConfinement(r0=6.803014, s=2.000000)
RESIDUAL: 0.0

OPT_VAL: 4.535342702008628   4.535342702008628   4.535342702008628   6.828014053012943
VCONF:
  Se_4d : PowerConfinement(r0=4.535343, s=2.000000)
  Se_4p : PowerConfinement(r0=4.535343, s=2.000000)
  Se_4s : PowerConfinement(r0=4.535343, s=2.000000)
  Se_n : PowerConfinement(r0=6.828014, s=2.000000)
RESIDUAL: 0.0

OPT_VAL: 4.540342702008628   4.535342702008628   4.535342702008628   6.803014053012943
VCONF:
  Se_4d : PowerConfinement(r0=4.540343, s=2.000000)
  Se_4p : PowerConfinement(r0=4.535343, s=2.000000)
  Se_4s : PowerConfinement(r0=4.535343, s=2.000000)
  Se_n : PowerConfinement(r0=6.803014, s=2.000000)
RESIDUAL: 0.0

OPT_VAL: 4.535342702008628   4.540342702008628   4.535342702008628   6.803014053012943
VCONF:
  Se_4d : PowerConfinement(r0=4.535343, s=2.000000)
  Se_4p : PowerConfinement(r0=4.540343, s=2.000000)
  Se_4s : PowerConfinement(r0=4.535343, s=2.000000)
  Se_n : PowerConfinement(r0=6.803014, s=2.000000)
RESIDUAL: 0.0

OPT_VAL: 4.535342702008628   4.535342702008628   4.540342702008628   6.803014053012943
VCONF:
  Se_4d : PowerConfinement(r0=4.535343, s=2.000000)
  Se_4p : PowerConfinement(r0=4.535343, s=2.000000)
  Se_4s : PowerConfinement(r0=4.540343, s=2.000000)
  Se_n : PowerConfinement(r0=6.803014, s=2.000000)
RESIDUAL: 0.0

OPT_VAL: 4.535342702008628   4.535342702008628   4.535342702008628   6.8080140530129425
VCONF:
  Se_4d : PowerConfinement(r0=4.535343, s=2.000000)
  Se_4p : PowerConfinement(r0=4.535343, s=2.000000)
  Se_4s : PowerConfinement(r0=4.535343, s=2.000000)
  Se_n : PowerConfinement(r0=6.808014, s=2.000000)
RESIDUAL: 0.0

*******************************************
Optimization finished after 13 iterations
Adjustable parameters and final values:
  Se_4d.r0 : 4.535343
  Se_4p.r0 : 4.535343
  Se_4s.r0 : 4.535343
  Se_n.r0 : 6.803014
*******************************************

VCONF:
  Se_4d : PowerConfinement(r0=4.535343, s=2.000000)
  Se_4p : PowerConfinement(r0=4.535343, s=2.000000)
  Se_4s : PowerConfinement(r0=4.535343, s=2.000000)
  Se_n : PowerConfinement(r0=6.803014, s=2.000000)
