element =  Ti
struct =  hcp
nbands =  -4
path =  GMKGALHA,LM,KH
kpts =  (8,8,4)

  ___ ___ ___ _ _ _  
 |   |   |_  | | | | 
 | | | | | . | | | | 
 |__ |  _|___|_____|  1.3.1b1
 |___|_|             

User:   inukai@DESKTOP-12SE80T
Date:   Sun Feb 14 02:09:41 2021
Arch:   x86_64
Pid:    9056
Python: 3.6.9
gpaw:   /usr/lib/python3/dist-packages/gpaw
_gpaw:  /usr/lib/python3/dist-packages/_gpaw.cpython-36m-x86_64-linux-gnu.so
ase:    /home/inukai/hotcent/ase-3.19.3/ase (version 3.19.3)
numpy:  /home/inukai/.local/lib/python3.6/site-packages/numpy (version 1.19.5)
scipy:  /home/inukai/.local/lib/python3.6/site-packages/scipy (version 1.5.4)
units:  Angstrom and eV
cores:  1

Input parameters:
  kpts: [8 8 4]
  maxiter: 1500
  mixer: {backend: pulay,
          beta: 0.05,
          method: separate,
          nmaxold: 5,
          weight: 50}
  mode: {ecut: 400.0,
         name: pw}
  occupations: {name: fermi-dirac,
                width: 0.02}
  spinpol: True
  xc: PBE

System changes: positions, numbers, cell, pbc, initial_charges, initial_magmoms 

Initialize ...

Ti-setup:
  name: Titanium
  id: d282db07e62ae71292040bf25b25ccdd
  Z: 22
  valence: 12
  core: 10
  charge: 0.0
  file: /usr/share/gpaw-setups/Ti.PBE.gz
  cutoffs: 1.22(comp), 2.23(filt), 1.02(core), lmax=2
  valence states:
                energy  radius
    3s(2.00)   -62.623   1.270
    4s(2.00)    -4.466   1.270
    3p(6.00)   -38.862   1.058
    4p(0.00)    -1.466   1.058
    3d(2.00)    -4.258   1.058
    *d          22.953   1.058

  Using partial waves for Ti as LCAO basis

Reference energy: -46448.028563

Spin-polarized calculation.
Magnetic moment:  0.000000

Occupation numbers:
  Fermi-Dirac: width=0.0200 eV

Convergence criteria:
  Maximum total energy change: 0.0005 eV / electron
  Maximum integral of absolute density change: 0.0001 electrons
  Maximum integral of absolute eigenstate change: 4e-08 eV^2
  Maximum number of iterations: 1500

Symmetries present (total): 12

  ( 1  1  0)  ( 1  1  0)  ( 1  0  0)  ( 1  0  0)  ( 0  1  0)  ( 0  1  0)
  ( 0 -1  0)  (-1  0  0)  ( 0  1  0)  (-1 -1  0)  ( 1  0  0)  (-1 -1  0)
  ( 0  0  1)  ( 0  0 -1)  ( 0  0  1)  ( 0  0 -1)  ( 0  0 -1)  ( 0  0  1)

  ( 0 -1  0)  ( 0 -1  0)  (-1  0  0)  (-1  0  0)  (-1 -1  0)  (-1 -1  0)
  ( 1  1  0)  (-1  0  0)  ( 1  1  0)  ( 0 -1  0)  ( 1  0  0)  ( 0  1  0)
  ( 0  0 -1)  ( 0  0  1)  ( 0  0  1)  ( 0  0 -1)  ( 0  0  1)  ( 0  0 -1)
Note: your k-points are not as symmetric as your crystal!

256 k-points: 8 x 8 x 4 Monkhorst-Pack grid
72 k-points in the irreducible part of the Brillouin zone
       k-points in crystal coordinates                weights
   0:     0.06250000   -0.06250000   -0.37500000          2/256
   1:     0.06250000   -0.06250000   -0.12500000          2/256
   2:     0.06250000   -0.06250000    0.12500000          2/256
   3:     0.06250000   -0.06250000    0.37500000          2/256
   4:     0.06250000    0.06250000    0.12500000          4/256
   5:     0.06250000    0.06250000    0.37500000          4/256
   6:     0.18750000   -0.18750000   -0.37500000          2/256
   7:     0.18750000   -0.18750000   -0.12500000          2/256
   8:     0.18750000   -0.18750000    0.12500000          2/256
   9:     0.18750000   -0.18750000    0.37500000          2/256
          ...
  71:     0.43750000    0.43750000    0.37500000          4/256

Wave functions: Plane wave expansion
  Cutoff energy: 400.000 eV
  Number of coefficients (min, max): 622, 639
  Using FFTW library
  Eigensolver: None  MatrixOperator buffer_size: default value or 
                              see value of nblock in input file
Diagonalizer layout: Serial LAPACKOrthonormalizer layout: Serial LAPACK 

Davidson(niter=1, smin=None, normalize=True) 

Densities:
  Coarse grid: 12*12*21 grid
  Fine grid: 24*24*42 grid
  Total Charge: 0.000000 

Density mixing:
  Method: separate
  Backend: pulay
  Linear mixing parameter: 0.05
  Mixing with 5 old densities
  Damping of long wave oscillations: 50 

Hamiltonian:
  XC and Coulomb potentials evaluated on a 24*24*42 grid
  Using the PBE Exchange-Correlation functional
 

Memory estimate:
  Process memory now: 929.20 MiB
  Calculator: 47.41 MiB
    Density: 1.73 MiB
      Arrays: 0.81 MiB
      Localized functions: 0.46 MiB
      Mixer: 0.46 MiB
    Hamiltonian: 0.61 MiB
      Arrays: 0.60 MiB
      XC: 0.00 MiB
      Poisson: 0.00 MiB
      vbar: 0.01 MiB
    Wavefunctions: 45.07 MiB
      Arrays psit_nG: 36.51 MiB
      Eigensolver: 0.41 MiB
      Projections: 2.06 MiB
      Projectors: 5.20 MiB
      Overlap op: 0.26 MiB
      PW-descriptor: 0.64 MiB

Total number of cores used: 1

Number of atoms: 2
Number of atomic orbitals: 26
Number of bands in calculation: 26
Bands to converge: occupied states only
Number of valence electrons: 24

... initialized

Initializing position-dependent things.

Density initialized from atomic densities
Creating initial wave functions:
  26 bands from LCAO basis set

                    
                    
                    
                    
        Ti          
                    
                    
          Ti        
                    
                    
                    
                    

Positions:
   0 Ti     0.000000    1.695469    3.488946
   1 Ti     1.468319    0.847735    1.162982

Unit cell:
           periodic     x           y           z      points  spacing
  1. axis:    yes    2.936639    0.000000    0.000000    12     0.2119
  2. axis:    yes   -1.468319    2.543204    0.000000    12     0.2119
  3. axis:    yes    0.000000    0.000000    4.651928    21     0.2215

  Lengths:   2.936639   2.936639   4.651928
  Angles:   90.000000  90.000000 120.000000

Effective grid spacing dv^(1/3) = 0.2256

                     log10-error:    total        iterations:
           time      wfs    density  energy       fermi  poisson  magmom
iter:   1  02:09:56  +2.02   +inf   -13.576471    2               +0.0000
iter:   2  02:10:02  -0.31   +inf   -13.627610    3               +0.0000
iter:   3  02:10:09  -1.52   +inf   -13.632466    2               +0.0000
iter:   4  02:10:16  -1.58  -1.33   -13.515156    3               -0.0000
iter:   5  02:10:23  +0.03  -1.37   -13.184285    32              -0.0000
iter:   6  02:10:30  -0.83  -1.94   -13.128688    4               -0.0000
iter:   7  02:10:37  -2.30  -1.98   -13.134502    3               -0.0000
iter:   8  02:10:45  -2.73  -2.88   -13.134393    3               +0.0000
iter:   9  02:10:52  -3.57  -2.95   -13.134432    3               +0.0000
iter:  10  02:10:59  -3.21  -3.01   -13.134301    3               +0.0000
iter:  11  02:11:06  -4.37  -3.83   -13.134304    2               +0.0000
iter:  12  02:11:13  -5.23  -3.92   -13.134305    2               +0.0000
iter:  13  02:11:20  -5.55  -3.92   -13.134308    2               +0.0000
iter:  14  02:11:27  -5.80  -3.87   -13.134306    2               +0.0000
iter:  15  02:11:34  -5.87  -3.96   -13.134304    2               -0.0000
iter:  16  02:11:41  -5.56  -4.15   -13.134306    2               -0.0000
iter:  17  02:11:49  -5.94  -4.23   -13.134304    2               -0.0000
iter:  18  02:11:56  -7.68  -4.35   -13.134304    2               -0.0000

Converged after 18 iterations.

Dipole moment: (-0.000000, 0.000000, 0.000000) |e|*Ang

Total magnetic moment: -0.000000
Local magnetic moments:
   0 Ti -0.000000
   1 Ti -0.000000

Energy contributions relative to reference atoms: (reference = -46448.028563)

Kinetic:         +9.501983
Potential:       -9.638812
External:        +0.000000
XC:             -13.283246
Entropy (-ST):   -0.003112
Local:           +0.287327
--------------------------
Free energy:    -13.135860
Extrapolated:   -13.134304

Spin contamination: 0.000000 electrons
Fermi level: 8.55319

Warning: Showing only first 2 kpts
                      Up                     Down
 Kpt  Band  Eigenvalues  Occupancy  Eigenvalues  Occupancy
  0    10      8.39509    0.00781      8.39509    0.00781
  0    11      8.84555    0.00000      8.84555    0.00000
  0    12      9.09884    0.00000      9.09884    0.00000
  0    13      9.21498    0.00000      9.21498    0.00000

  1    10      8.86054    0.00000      8.86054    0.00000
  1    11      9.08194    0.00000      9.08194    0.00000
  1    12      9.33121    0.00000      9.33121    0.00000
  1    13      9.45774    0.00000      9.45774    0.00000


Input parameters:
  convergence: {bands: all}
  eigensolver: {name: cg,
                niter: 5}
  fixdensity: True
  kpts: {npoints: 50,
         path: GMKGALHA,LM,KH}
  nbands: -4
  symmetry: off

Initialize ...

Ti-setup:
  name: Titanium
  id: d282db07e62ae71292040bf25b25ccdd
  Z: 22
  valence: 12
  core: 10
  charge: 0.0
  file: /usr/share/gpaw-setups/Ti.PBE.gz
  cutoffs: 1.22(comp), 2.23(filt), 1.02(core), lmax=2
  valence states:
                energy  radius
    3s(2.00)   -62.623   1.270
    4s(2.00)    -4.466   1.270
    3p(6.00)   -38.862   1.058
    4p(0.00)    -1.466   1.058
    3d(2.00)    -4.258   1.058
    *d          22.953   1.058

  Using partial waves for Ti as LCAO basis

Reference energy: -46448.028563

Spin-polarized calculation.
Magnetic moment:  0.000000

Occupation numbers:
  Fixed Fermi level
  Fermi-Dirac: width=0.0200 eV

Convergence criteria:
  Maximum total energy change: 0.0005 eV / electron
  Maximum integral of absolute density change: 0.0001 electrons
  Maximum integral of absolute eigenstate change: 4e-08 eV^2
  Maximum number of iterations: 1500

Symmetries present (total): 1

  ( 1  0  0)
  ( 0  1  0)
  ( 0  0  1)

50 k-points
50 k-points in the irreducible part of the Brillouin zone
       k-points in crystal coordinates                weights
   0:     0.00000000    0.00000000    0.00000000          1/50
   1:     0.08333333    0.00000000    0.00000000          1/50
   2:     0.16666667    0.00000000    0.00000000          1/50
   3:     0.25000000    0.00000000    0.00000000          1/50
   4:     0.33333333    0.00000000    0.00000000          1/50
   5:     0.41666667    0.00000000    0.00000000          1/50
   6:     0.50000000    0.00000000    0.00000000          1/50
   7:     0.44444444    0.11111111    0.00000000          1/50
   8:     0.38888889    0.22222222    0.00000000          1/50
   9:     0.33333333    0.33333333    0.00000000          1/50
          ...
  49:     0.33333333    0.33333333    0.50000000          1/50

Wave functions: Plane wave expansion
  Cutoff energy: 400.000 eV
  Number of coefficients (min, max): 617, 651
  Using FFTW library
  Eigensolver: None  MatrixOperator buffer_size: default value or 
                              see value of nblock in input file
Diagonalizer layout: Serial LAPACKOrthonormalizer layout: Serial LAPACK 

CG(niter=5, rtol=3.0e-01) 

No density mixing

Memory estimate:
  Process memory now: 1054.40 MiB
  Calculator: 23.58 MiB
    Density: 1.73 MiB
      Arrays: 0.81 MiB
      Localized functions: 0.46 MiB
      Mixer: 0.46 MiB
    Hamiltonian: 0.61 MiB
      Arrays: 0.60 MiB
      XC: 0.00 MiB
      Poisson: 0.00 MiB
      vbar: 0.01 MiB
    Wavefunctions: 21.24 MiB
      Arrays psit_nG: 15.89 MiB
      Eigensolver: 0.21 MiB
      Projections: 0.88 MiB
      Projectors: 3.62 MiB
      Overlap op: 0.16 MiB
      PW-descriptor: 0.48 MiB

Total number of cores used: 1

Number of atoms: 2
Number of atomic orbitals: 26
Number of bands in calculation: 16
Bands to converge: all
Number of valence electrons: 24

... initialized

Initializing position-dependent things.

Creating initial wave functions:
  16 bands from LCAO basis set

                    
                    
                    
                    
        Ti          
                    
                    
          Ti        
                    
                    
                    
                    

Positions:
   0 Ti     0.000000    1.695469    3.488946
   1 Ti     1.468319    0.847735    1.162982

Unit cell:
           periodic     x           y           z      points  spacing
  1. axis:    yes    2.936639    0.000000    0.000000    12     0.2119
  2. axis:    yes   -1.468319    2.543204    0.000000    12     0.2119
  3. axis:    yes    0.000000    0.000000    4.651928    21     0.2215

  Lengths:   2.936639   2.936639   4.651928
  Angles:   90.000000  90.000000 120.000000

Effective grid spacing dv^(1/3) = 0.2256

                     log10-error:    total        iterations:
           time      wfs    density  energy       fermi  poisson  magmom
iter:   1  02:12:15  +0.23          -13.246424    4               -0.0000
iter:   2  02:12:29  -0.98          -13.259532    4               -0.0000
iter:   3  02:12:46  -1.98          -13.261805    4               -0.0000
iter:   4  02:13:02  -3.09          -13.262030    4               -0.0000
iter:   5  02:13:18  -4.15          -13.262048    4               -0.0000
iter:   6  02:13:35  -5.28          -13.262050    4               -0.0000
iter:   7  02:13:50  -6.41          -13.262050    4               -0.0000
iter:   8  02:13:57  -7.25          -13.262050    4               -0.0000
iter:   9  02:14:01  -7.69          -13.262050    4               -0.0000

Converged after 9 iterations.

Dipole moment: (-0.000000, 0.000000, 0.000000) |e|*Ang

Total magnetic moment: -0.000000
Local magnetic moments:
   0 Ti -0.000000
   1 Ti -0.000000

Energy contributions relative to reference atoms: (reference = -46448.028563)

Kinetic:         +9.374752
Potential:       -9.638813
External:        +0.000000
XC:             -13.283247
Entropy (-ST):   -0.004137
Local:           +0.287327
--------------------------
Free energy:    -13.264119
Extrapolated:   -13.262050

Spin contamination: 0.000000 electrons
Fixed Fermi level: 8.55319

Warning: Showing only first 2 kpts
                      Up                     Down
 Kpt  Band  Eigenvalues  Occupancy  Eigenvalues  Occupancy
  0    10      9.28709    0.00000      9.28709    0.00000
  0    11      9.32391    0.00000      9.32391    0.00000
  0    12      9.32514    0.00000      9.32514    0.00000
  0    13      9.42904    0.00000      9.42904    0.00000

  1    10      8.93371    0.00000      8.93371    0.00000
  1    11      8.99765    0.00000      8.99765    0.00000
  1    12      9.46334    0.00000      9.46334    0.00000
  1    13      9.66310    0.00000      9.66310    0.00000


Timing:                              incl.     excl.
-----------------------------------------------------------
Hamiltonian:                         0.880     0.001   0.0% |
 Atomic:                             0.668     0.003   0.0% |
  XC Correction:                     0.666     0.666   0.3% |
 Calculate atomic Hamiltonians:      0.018     0.018   0.0% |
 Communicate:                        0.000     0.000   0.0% |
 Initialize Hamiltonian:             0.000     0.000   0.0% |
 Poisson:                            0.000     0.000   0.0% |
 XC 3D grid:                         0.191     0.191   0.1% |
LCAO initialization:                11.783     0.189   0.1% |
 LCAO eigensolver:                   3.818     0.025   0.0% |
  Calculate projections:             0.019     0.019   0.0% |
  DenseAtomicCorrection:             0.071     0.071   0.0% |
  Distribute overlap matrix:         0.011     0.011   0.0% |
  Orbital Layouts:                   0.436     0.436   0.2% |
  Potential matrix:                  1.437     1.437   0.5% |
  Sum over cells:                    1.818     1.818   0.7% |
 LCAO to grid:                       6.044     6.044   2.3% ||
 Set positions (LCAO WFS):           1.731     0.004   0.0% |
  Basic WFS set positions:           0.001     0.001   0.0% |
  Basis functions set positions:     0.000     0.000   0.0% |
  TCI: Calculate S, T, P:            1.726     1.726   0.7% |
PWDescriptor:                        0.038     0.038   0.0% |
Redistribute:                        0.000     0.000   0.0% |
SCF-cycle:                         245.440     3.217   1.2% |
 CG:                               110.466   100.877  38.6% |--------------|
  CG: orthonormalize:                9.590     5.225   2.0% ||
   CG: overlap:                      2.669     2.669   1.0% |
   CG: overlap2:                     1.696     1.696   0.6% |
 Davidson:                          80.944    36.251  13.9% |-----|
  calc. matrices:                   26.331    26.331  10.1% |---|
  diagonalize:                      16.542    16.542   6.3% |--|
  rotate_psi:                        1.819     1.819   0.7% |
 Density:                            7.554     0.001   0.0% |
  Atomic density matrices:           0.093     0.093   0.0% |
  Mix:                               0.201     0.201   0.1% |
  Multipole moments:                 0.002     0.002   0.0% |
  Pseudo density:                    7.257     7.183   2.7% ||
   Symmetrize density:               0.074     0.074   0.0% |
 Hamiltonian:                        6.463     0.011   0.0% |
  Atomic:                            5.182     0.019   0.0% |
   XC Correction:                    5.164     5.164   2.0% ||
  Calculate atomic Hamiltonians:     0.116     0.116   0.0% |
  Communicate:                       0.000     0.000   0.0% |
  Poisson:                           0.005     0.005   0.0% |
  XC 3D grid:                        1.149     1.149   0.4% |
 Orthonormalize:                     0.634     0.022   0.0% |
  Band Layouts:                      0.029     0.005   0.0% |
   Inverse Cholesky:                 0.024     0.024   0.0% |
  calc_s_matrix:                     0.091     0.091   0.0% |
  projections:                       0.423     0.423   0.2% |
  rotate_psi:                        0.070     0.070   0.0% |
 Residuals:                          1.799     1.799   0.7% |
 Subspace diag:                     34.363     0.492   0.2% |
  Band Layouts:                      4.028     0.141   0.1% |
   Diagonalize:                      3.779     3.779   1.4% ||
   Distribute results:               0.108     0.108   0.0% |
  calc_h_matrix:                    28.154    28.154  10.8% |---|
  rotate_psi:                        1.690     1.690   0.6% |
Set symmetry:                        0.020     0.020   0.0% |
Other:                               3.329     3.329   1.3% ||
-----------------------------------------------------------
Total:                                       261.490 100.0%

Date: Sun Feb 14 02:14:03 2021
element =  Ti
struct =  hcp
kpts =  (8,8,4)
element =  Ti
configuration =  [Ar] 3d2 4s2 4p0
valence =  ['3d', '4s', '4p']
occupations =  {'3d': 2, '4s': 2, '4p': 0}
nls =  3d
rNum =  600
lmax =  d
*******************************************
Starting confinement parameter optimization
Adjustable parameters and initial values:
  Ti_3d.r0 : 6.047124
  Ti_4p.r0 : 6.047124
  Ti_4s.r0 : 6.047124
  Ti_n.r0 : 9.070685
*******************************************

OPT_VAL: 6.047123602678171   6.047123602678171   6.047123602678171   9.070685404017258
VCONF:
  Ti_3d : PowerConfinement(r0=6.047124, s=2.000000)
  Ti_4p : PowerConfinement(r0=6.047124, s=2.000000)
  Ti_4s : PowerConfinement(r0=6.047124, s=2.000000)
  Ti_n : PowerConfinement(r0=9.070685, s=2.000000)
RESIDUAL: 0.0

OPT_VAL: 6.247123602678172   6.047123602678171   6.047123602678171   9.070685404017258
VCONF:
  Ti_3d : PowerConfinement(r0=6.247124, s=2.000000)
  Ti_4p : PowerConfinement(r0=6.047124, s=2.000000)
  Ti_4s : PowerConfinement(r0=6.047124, s=2.000000)
  Ti_n : PowerConfinement(r0=9.070685, s=2.000000)
RESIDUAL: 0.0

OPT_VAL: 6.047123602678171   6.247123602678172   6.047123602678171   9.070685404017258
VCONF:
  Ti_3d : PowerConfinement(r0=6.047124, s=2.000000)
  Ti_4p : PowerConfinement(r0=6.247124, s=2.000000)
  Ti_4s : PowerConfinement(r0=6.047124, s=2.000000)
  Ti_n : PowerConfinement(r0=9.070685, s=2.000000)
RESIDUAL: 0.0

OPT_VAL: 6.047123602678171   6.047123602678171   6.247123602678172   9.070685404017258
VCONF:
  Ti_3d : PowerConfinement(r0=6.047124, s=2.000000)
  Ti_4p : PowerConfinement(r0=6.047124, s=2.000000)
  Ti_4s : PowerConfinement(r0=6.247124, s=2.000000)
  Ti_n : PowerConfinement(r0=9.070685, s=2.000000)
RESIDUAL: 0.0

OPT_VAL: 6.047123602678171   6.047123602678171   6.047123602678171   9.270685404017257
VCONF:
  Ti_3d : PowerConfinement(r0=6.047124, s=2.000000)
  Ti_4p : PowerConfinement(r0=6.047124, s=2.000000)
  Ti_4s : PowerConfinement(r0=6.047124, s=2.000000)
  Ti_n : PowerConfinement(r0=9.270685, s=2.000000)
RESIDUAL: 0.0

OPT_VAL: 6.072123602678172   6.047123602678171   6.047123602678171   9.070685404017258
VCONF:
  Ti_3d : PowerConfinement(r0=6.072124, s=2.000000)
  Ti_4p : PowerConfinement(r0=6.047124, s=2.000000)
  Ti_4s : PowerConfinement(r0=6.047124, s=2.000000)
  Ti_n : PowerConfinement(r0=9.070685, s=2.000000)
RESIDUAL: 0.0

OPT_VAL: 6.047123602678171   6.072123602678172   6.047123602678171   9.070685404017258
VCONF:
  Ti_3d : PowerConfinement(r0=6.047124, s=2.000000)
  Ti_4p : PowerConfinement(r0=6.072124, s=2.000000)
  Ti_4s : PowerConfinement(r0=6.047124, s=2.000000)
  Ti_n : PowerConfinement(r0=9.070685, s=2.000000)
RESIDUAL: 0.0

OPT_VAL: 6.047123602678171   6.047123602678171   6.072123602678172   9.070685404017258
VCONF:
  Ti_3d : PowerConfinement(r0=6.047124, s=2.000000)
  Ti_4p : PowerConfinement(r0=6.047124, s=2.000000)
  Ti_4s : PowerConfinement(r0=6.072124, s=2.000000)
  Ti_n : PowerConfinement(r0=9.070685, s=2.000000)
RESIDUAL: 0.0

OPT_VAL: 6.047123602678171   6.047123602678171   6.047123602678171   9.095685404017258
VCONF:
  Ti_3d : PowerConfinement(r0=6.047124, s=2.000000)
  Ti_4p : PowerConfinement(r0=6.047124, s=2.000000)
  Ti_4s : PowerConfinement(r0=6.047124, s=2.000000)
  Ti_n : PowerConfinement(r0=9.095685, s=2.000000)
RESIDUAL: 0.0

OPT_VAL: 6.052123602678171   6.047123602678171   6.047123602678171   9.070685404017258
VCONF:
  Ti_3d : PowerConfinement(r0=6.052124, s=2.000000)
  Ti_4p : PowerConfinement(r0=6.047124, s=2.000000)
  Ti_4s : PowerConfinement(r0=6.047124, s=2.000000)
  Ti_n : PowerConfinement(r0=9.070685, s=2.000000)
RESIDUAL: 0.0

OPT_VAL: 6.047123602678171   6.052123602678171   6.047123602678171   9.070685404017258
VCONF:
  Ti_3d : PowerConfinement(r0=6.047124, s=2.000000)
  Ti_4p : PowerConfinement(r0=6.052124, s=2.000000)
  Ti_4s : PowerConfinement(r0=6.047124, s=2.000000)
  Ti_n : PowerConfinement(r0=9.070685, s=2.000000)
RESIDUAL: 0.0

OPT_VAL: 6.047123602678171   6.047123602678171   6.052123602678171   9.070685404017258
VCONF:
  Ti_3d : PowerConfinement(r0=6.047124, s=2.000000)
  Ti_4p : PowerConfinement(r0=6.047124, s=2.000000)
  Ti_4s : PowerConfinement(r0=6.052124, s=2.000000)
  Ti_n : PowerConfinement(r0=9.070685, s=2.000000)
RESIDUAL: 0.0

OPT_VAL: 6.047123602678171   6.047123602678171   6.047123602678171   9.075685404017259
VCONF:
  Ti_3d : PowerConfinement(r0=6.047124, s=2.000000)
  Ti_4p : PowerConfinement(r0=6.047124, s=2.000000)
  Ti_4s : PowerConfinement(r0=6.047124, s=2.000000)
  Ti_n : PowerConfinement(r0=9.075685, s=2.000000)
RESIDUAL: 0.0

*******************************************
Optimization finished after 13 iterations
Adjustable parameters and final values:
  Ti_3d.r0 : 6.047124
  Ti_4p.r0 : 6.047124
  Ti_4s.r0 : 6.047124
  Ti_n.r0 : 9.070685
*******************************************

VCONF:
  Ti_3d : PowerConfinement(r0=6.047124, s=2.000000)
  Ti_4p : PowerConfinement(r0=6.047124, s=2.000000)
  Ti_4s : PowerConfinement(r0=6.047124, s=2.000000)
  Ti_n : PowerConfinement(r0=9.070685, s=2.000000)
