element =  Br
struct =  orthorhombic
nbands =  -4
path =  GXSYGZURTZ,YT,UX,SR
kpts =  (8,8,8)

  ___ ___ ___ _ _ _  
 |   |   |_  | | | | 
 | | | | | . | | | | 
 |__ |  _|___|_____|  1.3.1b1
 |___|_|             

User:   inukai@DESKTOP-12SE80T
Date:   Sun Feb 14 05:10:01 2021
Arch:   x86_64
Pid:    10765
Python: 3.6.9
gpaw:   /usr/lib/python3/dist-packages/gpaw
_gpaw:  /usr/lib/python3/dist-packages/_gpaw.cpython-36m-x86_64-linux-gnu.so
ase:    /home/inukai/hotcent/ase-3.19.3/ase (version 3.19.3)
numpy:  /home/inukai/.local/lib/python3.6/site-packages/numpy (version 1.19.5)
scipy:  /home/inukai/.local/lib/python3.6/site-packages/scipy (version 1.5.4)
units:  Angstrom and eV
cores:  1

Input parameters:
  kpts: [8 8 8]
  maxiter: 1500
  mixer: {backend: pulay,
          beta: 0.05,
          method: separate,
          nmaxold: 5,
          weight: 50}
  mode: {ecut: 400.0,
         name: pw}
  occupations: {name: fermi-dirac,
                width: 0.02}
  spinpol: True
  xc: PBE

System changes: positions, numbers, cell, pbc, initial_charges, initial_magmoms 

Initialize ...

Br-setup:
  name: Bromine
  id: 39dc90fcf3bf77f2d83386b416c2c495
  Z: 35
  valence: 7
  core: 28
  charge: 0.0
  file: /usr/share/gpaw-setups/Br.PBE.gz
  cutoffs: 1.11(comp), 1.98(filt), 2.38(core), lmax=2
  valence states:
                energy  radius
    4s(2.00)   -20.121   1.111
    4p(5.00)    -7.861   1.111
    *s           7.091   1.111
    *p          19.351   1.111
    *d           0.000   1.111

  Using partial waves for Br as LCAO basis

Reference energy: -567217.981834

Spin-polarized calculation.
Magnetic moment:  0.000000

Occupation numbers:
  Fermi-Dirac: width=0.0200 eV

Convergence criteria:
  Maximum total energy change: 0.0005 eV / electron
  Maximum integral of absolute density change: 0.0001 electrons
  Maximum integral of absolute eigenstate change: 4e-08 eV^2
  Maximum number of iterations: 1500

Symmetries present (total): 4

  ( 1  0  0)  ( 1  0  0)  (-1  0  0)  (-1  0  0)
  ( 0  1  0)  ( 0 -1  0)  ( 0  1  0)  ( 0 -1  0)
  ( 0  0  1)  ( 0  0 -1)  ( 0  0  1)  ( 0  0 -1)

512 k-points: 8 x 8 x 8 Monkhorst-Pack grid
128 k-points in the irreducible part of the Brillouin zone
       k-points in crystal coordinates                weights
   0:     0.06250000    0.06250000   -0.43750000          4/512
   1:     0.06250000    0.06250000   -0.31250000          4/512
   2:     0.06250000    0.06250000   -0.18750000          4/512
   3:     0.06250000    0.06250000   -0.06250000          4/512
   4:     0.06250000    0.06250000    0.06250000          4/512
   5:     0.06250000    0.06250000    0.18750000          4/512
   6:     0.06250000    0.06250000    0.31250000          4/512
   7:     0.06250000    0.06250000    0.43750000          4/512
   8:     0.06250000    0.18750000   -0.43750000          4/512
   9:     0.06250000    0.18750000   -0.31250000          4/512
          ...
 127:     0.43750000    0.43750000    0.43750000          4/512

Wave functions: Plane wave expansion
  Cutoff energy: 400.000 eV
  Number of coefficients (min, max): 5685, 5728
  Using FFTW library
  Eigensolver: None  MatrixOperator buffer_size: default value or 
                              see value of nblock in input file
Diagonalizer layout: Serial LAPACKOrthonormalizer layout: Serial LAPACK 

Davidson(niter=1, smin=None, normalize=True) 

Densities:
  Coarse grid: 40*20*42 grid
  Fine grid: 80*40*84 grid
  Total Charge: 0.000000 

Density mixing:
  Method: separate
  Backend: pulay
  Linear mixing parameter: 0.05
  Mixing with 5 old densities
  Damping of long wave oscillations: 50 

Hamiltonian:
  XC and Coulomb potentials evaluated on a 80*40*84 grid
  Using the PBE Exchange-Correlation functional
 

Memory estimate:
  Process memory now: 949.20 MiB
  Calculator: 849.96 MiB
    Density: 20.28 MiB
      Arrays: 8.97 MiB
      Localized functions: 6.18 MiB
      Mixer: 5.13 MiB
    Hamiltonian: 6.79 MiB
      Arrays: 6.67 MiB
      XC: 0.00 MiB
      Poisson: 0.00 MiB
      vbar: 0.13 MiB
    Wavefunctions: 822.88 MiB
      Arrays psit_nG: 716.00 MiB
      Eigensolver: 3.39 MiB
      Projections: 13.00 MiB
      Projectors: 78.04 MiB
      Overlap op: 2.81 MiB
      PW-descriptor: 9.64 MiB

Total number of cores used: 1

Number of atoms: 8
Number of atomic orbitals: 32
Number of bands in calculation: 32
Bands to converge: occupied states only
Number of valence electrons: 56

... initialized

Initializing position-dependent things.

Density initialized from atomic densities
Creating initial wave functions:
  32 bands from LCAO basis set

    .-------------------.  
   /|                   |  
  /Br                   |  
 *  |                   |  
 |  |      Br           |  
 |  |        Br         |  
 |  |                   |  
 Br Br                  |  
 |  |                   |  
 |  |       Br          |  
 |  |         Br        |  
 |  .-------------------.  
 |Br                   /   
 |/                   /    
 *-------------------*     

Positions:
   0 Br     0.000000    1.588369    1.058333
   1 Br     0.000000    0.525285    5.574946
   2 Br     0.000000    3.702023    3.458281
   3 Br     0.000000    2.638939    7.974894
   4 Br     4.114299    3.702023    1.058333
   5 Br     4.114299    2.638939    5.574946
   6 Br     4.114299    1.588369    3.458281
   7 Br     4.114299    0.525285    7.974894

Unit cell:
           periodic     x           y           z      points  spacing
  1. axis:    yes    8.228597    0.000000    0.000000    40     0.2057
  2. axis:    yes    0.000000    4.227308    0.000000    20     0.2114
  3. axis:    yes    0.000000    0.000000    9.033227    42     0.2151

  Lengths:   8.228597   4.227308   9.033227
  Angles:   90.000000  90.000000  90.000000

Effective grid spacing dv^(1/3) = 0.2107

                     log10-error:    total        iterations:
           time      wfs    density  energy       fermi  poisson  magmom
iter:   1  05:12:32  +0.28   +inf   -13.377558    0               +0.0000
iter:   2  05:14:14  -0.70   +inf   -13.593457    0               +0.0000
iter:   3  05:15:56  -1.70   +inf   -13.622455    0               +0.0000
iter:   4  05:17:51  -2.28  -1.09   -13.516553    0               +0.0000
iter:   5  05:19:47  -0.89  -1.12   -12.778058    0               +0.0000
iter:   6  05:21:41  -1.79  -1.97   -12.793991    0               -0.0000
iter:   7  05:23:36  -2.72  -2.09   -12.783914    0               +0.0000
iter:   8  05:25:31  -2.59  -2.24   -12.780680    0               -0.0000
iter:   9  05:27:26  -2.92  -2.45   -12.781773    0               -0.0000
iter:  10  05:29:21  -3.27  -2.44   -12.785374    0               +0.0000
iter:  11  05:31:17  -2.85  -2.34   -12.779589    0               +0.0000
iter:  12  05:33:12  -3.78  -3.00   -12.779492    0               +0.0000
iter:  13  05:35:06  -4.95  -3.33   -12.779505    0               +0.0000
iter:  14  05:37:01  -5.39  -3.34   -12.779463    0               +0.0000
iter:  15  05:38:56  -5.37  -3.46   -12.779475    0               +0.0000
iter:  16  05:40:51  -5.87  -3.53   -12.779462    0               +0.0000
iter:  17  05:42:45  -6.03  -3.73   -12.779460    0               +0.0000
iter:  18  05:44:40  -6.57  -4.14   -12.779460    0               +0.0000
iter:  19  05:46:35  -7.10  -4.42   -12.779460    0               +0.0000
iter:  20  05:48:30  -7.88  -4.49   -12.779460    0               +0.0000

Converged after 20 iterations.

Dipole moment: (0.000000, -0.000000, -0.000000) |e|*Ang

Total magnetic moment: 0.000000
Local magnetic moments:
   0 Br 0.000000
   1 Br 0.000000
   2 Br 0.000000
   3 Br 0.000000
   4 Br 0.000000
   5 Br 0.000000
   6 Br 0.000000
   7 Br 0.000000

Energy contributions relative to reference atoms: (reference = -567217.981834)

Kinetic:        +18.459426
Potential:      -17.077328
External:        +0.000000
XC:             -13.958278
Entropy (-ST):   -0.000000
Local:           -0.203281
--------------------------
Free energy:    -12.779460
Extrapolated:   -12.779460

Spin contamination: 0.000000 electrons
Fermi level: 0.30101

Warning: Showing only first 2 kpts
                      Up                     Down
 Kpt  Band  Eigenvalues  Occupancy  Eigenvalues  Occupancy
  0    26     -0.77487    0.00781     -0.77487    0.00781
  0    27     -0.65724    0.00781     -0.65724    0.00781
  0    28      1.26565    0.00000      1.26565    0.00000
  0    29      1.28959    0.00000      1.28959    0.00000

  1    26     -0.80687    0.00781     -0.80687    0.00781
  1    27     -0.55576    0.00781     -0.55576    0.00781
  1    28      1.06144    0.00000      1.06144    0.00000
  1    29      1.09597    0.00000      1.09597    0.00000


Input parameters:
  convergence: {bands: all}
  eigensolver: {name: cg,
                niter: 5}
  fixdensity: True
  kpts: {npoints: 50,
         path: GXSYGZURTZ,YT,UX,SR}
  nbands: -4
  symmetry: off

Initialize ...

Br-setup:
  name: Bromine
  id: 39dc90fcf3bf77f2d83386b416c2c495
  Z: 35
  valence: 7
  core: 28
  charge: 0.0
  file: /usr/share/gpaw-setups/Br.PBE.gz
  cutoffs: 1.11(comp), 1.98(filt), 2.38(core), lmax=2
  valence states:
                energy  radius
    4s(2.00)   -20.121   1.111
    4p(5.00)    -7.861   1.111
    *s           7.091   1.111
    *p          19.351   1.111
    *d           0.000   1.111

  Using partial waves for Br as LCAO basis

Reference energy: -567217.981834

Spin-polarized calculation.
Magnetic moment:  0.000000

Occupation numbers:
  Fixed Fermi level
  Fermi-Dirac: width=0.0200 eV

Convergence criteria:
  Maximum total energy change: 0.0005 eV / electron
  Maximum integral of absolute density change: 0.0001 electrons
  Maximum integral of absolute eigenstate change: 4e-08 eV^2
  Maximum number of iterations: 1500

Symmetries present (total): 1

  ( 1  0  0)
  ( 0  1  0)
  ( 0  0  1)

50 k-points
50 k-points in the irreducible part of the Brillouin zone
       k-points in crystal coordinates                weights
   0:     0.00000000    0.00000000    0.00000000          1/50
   1:     0.00000000   -0.10000000    0.00000000          1/50
   2:     0.00000000   -0.20000000    0.00000000          1/50
   3:     0.00000000   -0.30000000    0.00000000          1/50
   4:     0.00000000   -0.40000000    0.00000000          1/50
   5:     0.00000000   -0.50000000    0.00000000          1/50
   6:    -0.25000000   -0.50000000    0.00000000          1/50
   7:    -0.50000000   -0.50000000    0.00000000          1/50
   8:    -0.50000000   -0.41666667    0.00000000          1/50
   9:    -0.50000000   -0.33333333    0.00000000          1/50
          ...
  49:    -0.50000000   -0.50000000   -0.50000000          1/50

Wave functions: Plane wave expansion
  Cutoff energy: 400.000 eV
  Number of coefficients (min, max): 5668, 5748
  Using FFTW library
  Eigensolver: None  MatrixOperator buffer_size: default value or 
                              see value of nblock in input file
Diagonalizer layout: Serial LAPACKOrthonormalizer layout: Serial LAPACK 

CG(niter=5, rtol=3.0e-01) 

No density mixing

Memory estimate:
  Process memory now: 1900.62 MiB
  Calculator: 353.93 MiB
    Density: 20.28 MiB
      Arrays: 8.97 MiB
      Localized functions: 6.18 MiB
      Mixer: 5.13 MiB
    Hamiltonian: 6.79 MiB
      Arrays: 6.67 MiB
      XC: 0.00 MiB
      Poisson: 0.00 MiB
      vbar: 0.13 MiB
    Wavefunctions: 326.85 MiB
      Arrays psit_nG: 280.66 MiB
      Eigensolver: 3.25 MiB
      Projections: 5.08 MiB
      Projectors: 30.50 MiB
      Overlap op: 2.82 MiB
      PW-descriptor: 4.55 MiB

Total number of cores used: 1

Number of atoms: 8
Number of atomic orbitals: 32
Number of bands in calculation: 32
Bands to converge: all
Number of valence electrons: 56

... initialized

Initializing position-dependent things.

Creating initial wave functions:
  32 bands from LCAO basis set

    .-------------------.  
   /|                   |  
  /Br                   |  
 *  |                   |  
 |  |      Br           |  
 |  |        Br         |  
 |  |                   |  
 Br Br                  |  
 |  |                   |  
 |  |       Br          |  
 |  |         Br        |  
 |  .-------------------.  
 |Br                   /   
 |/                   /    
 *-------------------*     

Positions:
   0 Br     0.000000    1.588369    1.058333
   1 Br     0.000000    0.525285    5.574946
   2 Br     0.000000    3.702023    3.458281
   3 Br     0.000000    2.638939    7.974894
   4 Br     4.114299    3.702023    1.058333
   5 Br     4.114299    2.638939    5.574946
   6 Br     4.114299    1.588369    3.458281
   7 Br     4.114299    0.525285    7.974894

Unit cell:
           periodic     x           y           z      points  spacing
  1. axis:    yes    8.228597    0.000000    0.000000    40     0.2057
  2. axis:    yes    0.000000    4.227308    0.000000    20     0.2114
  3. axis:    yes    0.000000    0.000000    9.033227    42     0.2151

  Lengths:   8.228597   4.227308   9.033227
  Angles:   90.000000  90.000000  90.000000

Effective grid spacing dv^(1/3) = 0.2107

                     log10-error:    total        iterations:
           time      wfs    density  energy       fermi  poisson  magmom
iter:   1  05:52:41  +0.34          -12.294526    0               -0.0000
iter:   2  05:56:37  -0.42          -12.608674    0               -0.0000
iter:   3  06:01:27  -1.43          -12.659097    0               -0.0000
iter:   4  06:05:28  -2.15          -12.665681    0               -0.0000
iter:   5  06:09:58  -2.90          -12.667053    0               -0.0000
iter:   6  06:14:12  -3.54          -12.667323    0               -0.0000
iter:   7  06:18:38  -4.19          -12.667386    0               -0.0000
iter:   8  06:22:59  -4.79          -12.667400    0               -0.0000
iter:   9  06:27:15  -5.40          -12.667403    0               -0.0000
iter:  10  06:30:47  -5.98          -12.667404    0               -0.0000
iter:  11  06:33:31  -6.56          -12.667404    0               -0.0000
iter:  12  06:35:55  -7.14          -12.667404    0               -0.0000
iter:  13  06:37:56  -7.72          -12.667404    0               -0.0000

Converged after 13 iterations.

Dipole moment: (0.000000, -0.000000, -0.000000) |e|*Ang

Total magnetic moment: -0.000000
Local magnetic moments:
   0 Br 0.000000
   1 Br 0.000000
   2 Br 0.000000
   3 Br 0.000000
   4 Br 0.000000
   5 Br 0.000000
   6 Br 0.000000
   7 Br 0.000000

Energy contributions relative to reference atoms: (reference = -567217.981834)

Kinetic:        +18.571192
Potential:      -17.077001
External:        +0.000000
XC:             -13.958109
Entropy (-ST):   -0.000000
Local:           -0.203485
--------------------------
Free energy:    -12.667404
Extrapolated:   -12.667404

Spin contamination: 0.000000 electrons
Fixed Fermi level: 0.30101

Warning: Showing only first 2 kpts
                      Up                     Down
 Kpt  Band  Eigenvalues  Occupancy  Eigenvalues  Occupancy
  0    26     -0.58477    0.02000     -0.58477    0.02000
  0    27     -0.42072    0.02000     -0.42072    0.02000
  0    28      0.78229    0.00000      0.78229    0.00000
  0    29      0.82573    0.00000      0.82573    0.00000

  1    26     -0.59635    0.02000     -0.59635    0.02000
  1    27     -0.46007    0.02000     -0.46007    0.02000
  1    28      0.82406    0.00000      0.82406    0.00000
  1    29      0.87532    0.00000      0.87532    0.00000


Timing:                              incl.     excl.
-----------------------------------------------------------
Hamiltonian:                         3.633     0.006   0.0% |
 Atomic:                             1.944     0.003   0.0% |
  XC Correction:                     1.941     1.941   0.0% |
 Calculate atomic Hamiltonians:      0.482     0.482   0.0% |
 Communicate:                        0.000     0.000   0.0% |
 Initialize Hamiltonian:             0.000     0.000   0.0% |
 Poisson:                            0.004     0.004   0.0% |
 XC 3D grid:                         1.195     1.195   0.0% |
LCAO initialization:                48.250     0.048   0.0% |
 LCAO eigensolver:                   2.799     0.036   0.0% |
  Calculate projections:             0.096     0.096   0.0% |
  DenseAtomicCorrection:             0.264     0.264   0.0% |
  Distribute overlap matrix:         0.017     0.017   0.0% |
  Orbital Layouts:                   0.860     0.860   0.0% |
  Potential matrix:                  0.570     0.570   0.0% |
  Sum over cells:                    0.956     0.956   0.0% |
 LCAO to grid:                      43.641    43.641   0.8% |
 Set positions (LCAO WFS):           1.761     0.013   0.0% |
  Basic WFS set positions:           0.001     0.001   0.0% |
  Basis functions set positions:     0.000     0.000   0.0% |
  TCI: Calculate S, T, P:            1.747     1.747   0.0% |
PWDescriptor:                        0.413     0.413   0.0% |
Redistribute:                        0.000     0.000   0.0% |
SCF-cycle:                        5218.780     7.768   0.1% |
 CG:                              2723.427  2633.773  49.9% |-------------------|
  CG: orthonormalize:               89.653    33.459   0.6% |
   CG: overlap:                     45.863    45.863   0.9% |
   CG: overlap2:                    10.332    10.332   0.2% |
 Davidson:                        1314.535   524.284   9.9% |---|
  calc. matrices:                  712.442   712.442  13.5% |----|
  diagonalize:                      51.668    51.668   1.0% |
  rotate_psi:                       26.141    26.141   0.5% |
 Density:                          197.370     0.001   0.0% |
  Atomic density matrices:           0.605     0.605   0.0% |
  Mix:                               4.484     4.484   0.1% |
  Multipole moments:                 0.005     0.005   0.0% |
  Pseudo density:                  192.275   191.976   3.6% ||
   Symmetrize density:               0.299     0.299   0.0% |
 Hamiltonian:                       30.784     0.039   0.0% |
  Atomic:                           16.775     0.026   0.0% |
   XC Correction:                   16.749    16.749   0.3% |
  Calculate atomic Hamiltonians:     4.022     4.022   0.1% |
  Communicate:                       0.000     0.000   0.0% |
  Poisson:                           0.022     0.022   0.0% |
  XC 3D grid:                        9.926     9.926   0.2% |
 Orthonormalize:                    12.379     0.038   0.0% |
  Band Layouts:                      0.063     0.008   0.0% |
   Inverse Cholesky:                 0.055     0.055   0.0% |
  calc_s_matrix:                     0.731     0.731   0.0% |
  projections:                      10.550    10.550   0.2% |
  rotate_psi:                        0.997     0.997   0.0% |
 Residuals:                         39.475    39.475   0.7% |
 Subspace diag:                    893.043     1.355   0.0% |
  Band Layouts:                     12.761     0.307   0.0% |
   Diagonalize:                     12.226    12.226   0.2% |
   Distribute results:               0.228     0.228   0.0% |
  calc_h_matrix:                   853.115   853.115  16.2% |-----|
  rotate_psi:                       25.812    25.812   0.5% |
Set symmetry:                        0.041     0.041   0.0% |
Other:                               6.298     6.298   0.1% |
-----------------------------------------------------------
Total:                                      5277.415 100.0%

Date: Sun Feb 14 06:37:58 2021
element =  Br
struct =  orthorhombic
kpts =  (8,8,8)
element =  Br
configuration =  [Ar] 3d10 4s2 4p5 4d0
valence =  ['4s', '4p', '4d']
occupations =  {'4s': 2, '4p': 5, '4d': 0}
nls =  4p
rNum =  600
lmax =  d
*******************************************
Starting confinement parameter optimization
Adjustable parameters and initial values:
  Br_4d.r0 : 4.535343
  Br_4p.r0 : 4.535343
  Br_4s.r0 : 4.535343
  Br_n.r0 : 6.803014
*******************************************

OPT_VAL: 4.535342702008628   4.535342702008628   4.535342702008628   6.803014053012943
VCONF:
  Br_4d : PowerConfinement(r0=4.535343, s=2.000000)
  Br_4p : PowerConfinement(r0=4.535343, s=2.000000)
  Br_4s : PowerConfinement(r0=4.535343, s=2.000000)
  Br_n : PowerConfinement(r0=6.803014, s=2.000000)
RESIDUAL: 0.0

OPT_VAL: 4.735342702008628   4.535342702008628   4.535342702008628   6.803014053012943
VCONF:
  Br_4d : PowerConfinement(r0=4.735343, s=2.000000)
  Br_4p : PowerConfinement(r0=4.535343, s=2.000000)
  Br_4s : PowerConfinement(r0=4.535343, s=2.000000)
  Br_n : PowerConfinement(r0=6.803014, s=2.000000)
RESIDUAL: 0.0

OPT_VAL: 4.535342702008628   4.735342702008628   4.535342702008628   6.803014053012943
VCONF:
  Br_4d : PowerConfinement(r0=4.535343, s=2.000000)
  Br_4p : PowerConfinement(r0=4.735343, s=2.000000)
  Br_4s : PowerConfinement(r0=4.535343, s=2.000000)
  Br_n : PowerConfinement(r0=6.803014, s=2.000000)
RESIDUAL: 0.0

OPT_VAL: 4.535342702008628   4.535342702008628   4.735342702008628   6.803014053012943
VCONF:
  Br_4d : PowerConfinement(r0=4.535343, s=2.000000)
  Br_4p : PowerConfinement(r0=4.535343, s=2.000000)
  Br_4s : PowerConfinement(r0=4.735343, s=2.000000)
  Br_n : PowerConfinement(r0=6.803014, s=2.000000)
RESIDUAL: 0.0

OPT_VAL: 4.535342702008628   4.535342702008628   4.535342702008628   7.003014053012943
VCONF:
  Br_4d : PowerConfinement(r0=4.535343, s=2.000000)
  Br_4p : PowerConfinement(r0=4.535343, s=2.000000)
  Br_4s : PowerConfinement(r0=4.535343, s=2.000000)
  Br_n : PowerConfinement(r0=7.003014, s=2.000000)
RESIDUAL: 0.0

OPT_VAL: 4.5603427020086285   4.535342702008628   4.535342702008628   6.803014053012943
VCONF:
  Br_4d : PowerConfinement(r0=4.560343, s=2.000000)
  Br_4p : PowerConfinement(r0=4.535343, s=2.000000)
  Br_4s : PowerConfinement(r0=4.535343, s=2.000000)
  Br_n : PowerConfinement(r0=6.803014, s=2.000000)
RESIDUAL: 0.0

OPT_VAL: 4.535342702008628   4.5603427020086285   4.535342702008628   6.803014053012943
VCONF:
  Br_4d : PowerConfinement(r0=4.535343, s=2.000000)
  Br_4p : PowerConfinement(r0=4.560343, s=2.000000)
  Br_4s : PowerConfinement(r0=4.535343, s=2.000000)
  Br_n : PowerConfinement(r0=6.803014, s=2.000000)
RESIDUAL: 0.0

OPT_VAL: 4.535342702008628   4.535342702008628   4.5603427020086285   6.803014053012943
VCONF:
  Br_4d : PowerConfinement(r0=4.535343, s=2.000000)
  Br_4p : PowerConfinement(r0=4.535343, s=2.000000)
  Br_4s : PowerConfinement(r0=4.560343, s=2.000000)
  Br_n : PowerConfinement(r0=6.803014, s=2.000000)
RESIDUAL: 0.0

OPT_VAL: 4.535342702008628   4.535342702008628   4.535342702008628   6.828014053012943
VCONF:
  Br_4d : PowerConfinement(r0=4.535343, s=2.000000)
  Br_4p : PowerConfinement(r0=4.535343, s=2.000000)
  Br_4s : PowerConfinement(r0=4.535343, s=2.000000)
  Br_n : PowerConfinement(r0=6.828014, s=2.000000)
RESIDUAL: 0.0

OPT_VAL: 4.540342702008628   4.535342702008628   4.535342702008628   6.803014053012943
VCONF:
  Br_4d : PowerConfinement(r0=4.540343, s=2.000000)
  Br_4p : PowerConfinement(r0=4.535343, s=2.000000)
  Br_4s : PowerConfinement(r0=4.535343, s=2.000000)
  Br_n : PowerConfinement(r0=6.803014, s=2.000000)
RESIDUAL: 0.0

OPT_VAL: 4.535342702008628   4.540342702008628   4.535342702008628   6.803014053012943
VCONF:
  Br_4d : PowerConfinement(r0=4.535343, s=2.000000)
  Br_4p : PowerConfinement(r0=4.540343, s=2.000000)
  Br_4s : PowerConfinement(r0=4.535343, s=2.000000)
  Br_n : PowerConfinement(r0=6.803014, s=2.000000)
RESIDUAL: 0.0

OPT_VAL: 4.535342702008628   4.535342702008628   4.540342702008628   6.803014053012943
VCONF:
  Br_4d : PowerConfinement(r0=4.535343, s=2.000000)
  Br_4p : PowerConfinement(r0=4.535343, s=2.000000)
  Br_4s : PowerConfinement(r0=4.540343, s=2.000000)
  Br_n : PowerConfinement(r0=6.803014, s=2.000000)
RESIDUAL: 0.0

OPT_VAL: 4.535342702008628   4.535342702008628   4.535342702008628   6.8080140530129425
VCONF:
  Br_4d : PowerConfinement(r0=4.535343, s=2.000000)
  Br_4p : PowerConfinement(r0=4.535343, s=2.000000)
  Br_4s : PowerConfinement(r0=4.535343, s=2.000000)
  Br_n : PowerConfinement(r0=6.808014, s=2.000000)
RESIDUAL: 0.0

*******************************************
Optimization finished after 13 iterations
Adjustable parameters and final values:
  Br_4d.r0 : 4.535343
  Br_4p.r0 : 4.535343
  Br_4s.r0 : 4.535343
  Br_n.r0 : 6.803014
*******************************************

VCONF:
  Br_4d : PowerConfinement(r0=4.535343, s=2.000000)
  Br_4p : PowerConfinement(r0=4.535343, s=2.000000)
  Br_4s : PowerConfinement(r0=4.535343, s=2.000000)
  Br_n : PowerConfinement(r0=6.803014, s=2.000000)
