
     Program PWSCF v.6.0 (svn rev. 13079) starts on 25Feb2021 at 19:31:30 

     This program is part of the open-source Quantum ESPRESSO suite
     for quantum simulation of materials; please cite
         "P. Giannozzi et al., J. Phys.:Condens. Matter 21 395502 (2009);
          URL http://www.quantum-espresso.org", 
     in publications or presentations arising from this work. More details at
     http://www.quantum-espresso.org/quote

     Parallel version (MPI), running on     1 processors
     Reading input from espresso.pwi
Warning: card &IONS ignored
Warning: card / ignored
Warning: card &CELL ignored
Warning: card / ignored

     Current dimensions of program PWSCF are:
     Max number of different atomic species (ntypx) = 10
     Max number of k-points (npk) =  40000
     Max angular momentum in pseudopotentials (lmaxx) =  3
     Message from routine input:
     WARNING: "startingwfc" set to atomic+random may spoil restart

     Atomic positions and unit cell read from directory:
     ./pwscf.save/


     IMPORTANT: XC functional enforced from input :
     Exchange-correlation      = PBE ( 1  4  3  4 0 0)
     Any further DFT definition will be discarded
     Please, verify this is what you really want


     Subspace diagonalization in iterative solution of the eigenvalue problem:
     a serial algorithm will be used


     G-vector sticks info
     --------------------
     sticks:   dense  smooth     PW     G-vecs:    dense   smooth      PW
     Sum         367     301     97                 4693     3479     645



     bravais-lattice index     =            0
     lattice parameter (alat)  =       5.1993  a.u.
     unit-cell volume          =      99.3849 (a.u.)^3
     number of atoms/cell      =            1
     number of atomic types    =            1
     number of electrons       =        16.00
     number of Kohn-Sham states=           12
     kinetic-energy cutoff     =      40.0000  Ry
     charge density cutoff     =     200.0000  Ry
     Exchange-correlation      = PBE ( 1  4  3  4 0 0)

     celldm(1)=   5.199303  celldm(2)=   0.000000  celldm(3)=   0.000000
     celldm(4)=   0.000000  celldm(5)=   0.000000  celldm(6)=   0.000000

     crystal axes: (cart. coord. in units of alat)
               a(1) = (   0.000000   0.707107   0.707107 )  
               a(2) = (   0.707107   0.000000   0.707107 )  
               a(3) = (   0.707107   0.707107   0.000000 )  

     reciprocal axes: (cart. coord. in units 2 pi/alat)
               b(1) = ( -0.707107  0.707107  0.707107 )  
               b(2) = (  0.707107 -0.707107  0.707107 )  
               b(3) = (  0.707107  0.707107 -0.707107 )  


     PseudoPot. # 1 for Pd read from file:
     /home/inukai/tango/tests/1element/qe_fit_v2_Pd/../pseudo/pd_pbe_v1.4.uspp.F.UPF
     MD5 check sum: 2d733d2bc2cbfd217af676df1668a4bc
     Pseudo is Ultrasoft + core correction, Zval = 16.0
     Generated by new atomic code, or converted to UPF format
     Using radial grid of  887 points,  6 beta functions with: 
                l(1) =   0
                l(2) =   0
                l(3) =   1
                l(4) =   1
                l(5) =   2
                l(6) =   2
     Q(r) pseudized with  8 coefficients,  rinner =    1.130   1.130   1.130
                                                       1.130   1.130

     atomic species   valence    mass     pseudopotential
        Pd            16.00   106.42000     Pd( 1.00)

     48 Sym. Ops., with inversion, found


                                    s                        frac. trans.

      isym =  1     identity                                     

 cryst.   s( 1) = (     1          0          0      )
                  (     0          1          0      )
                  (     0          0          1      )

 cart.    s( 1) = (  1.0000000  0.0000000  0.0000000 )
                  (  0.0000000  1.0000000  0.0000000 )
                  (  0.0000000  0.0000000  1.0000000 )


      isym =  2     180 deg rotation - cart. axis [0,0,1]        

 cryst.   s( 2) = (     0          1         -1      )
                  (     1          0         -1      )
                  (     0          0         -1      )

 cart.    s( 2) = ( -1.0000000  0.0000000  0.0000000 )
                  (  0.0000000 -1.0000000  0.0000000 )
                  (  0.0000000  0.0000000  1.0000000 )


      isym =  3     180 deg rotation - cart. axis [0,1,0]        

 cryst.   s( 3) = (     0         -1          1      )
                  (     0         -1          0      )
                  (     1         -1          0      )

 cart.    s( 3) = ( -1.0000000  0.0000000  0.0000000 )
                  (  0.0000000  1.0000000  0.0000000 )
                  (  0.0000000  0.0000000 -1.0000000 )


      isym =  4     180 deg rotation - cart. axis [1,0,0]        

 cryst.   s( 4) = (    -1          0          0      )
                  (    -1          0          1      )
                  (    -1          1          0      )

 cart.    s( 4) = (  1.0000000  0.0000000  0.0000000 )
                  (  0.0000000 -1.0000000  0.0000000 )
                  (  0.0000000  0.0000000 -1.0000000 )


      isym =  5     180 deg rotation - cart. axis [1,1,0]        

 cryst.   s( 5) = (    -1          0          1      )
                  (     0         -1          1      )
                  (     0          0          1      )

 cart.    s( 5) = (  0.0000000  1.0000000  0.0000000 )
                  (  1.0000000  0.0000000  0.0000000 )
                  (  0.0000000  0.0000000 -1.0000000 )


      isym =  6     180 deg rotation - cart. axis [1,-1,0]       

 cryst.   s( 6) = (     0         -1          0      )
                  (    -1          0          0      )
                  (     0          0         -1      )

 cart.    s( 6) = (  0.0000000 -1.0000000  0.0000000 )
                  ( -1.0000000  0.0000000  0.0000000 )
                  (  0.0000000  0.0000000 -1.0000000 )


      isym =  7      90 deg rotation - cart. axis [0,0,-1]       

 cryst.   s( 7) = (     0          1          0      )
                  (     0          1         -1      )
                  (    -1          1          0      )

 cart.    s( 7) = (  0.0000000  1.0000000  0.0000000 )
                  ( -1.0000000  0.0000000  0.0000000 )
                  (  0.0000000  0.0000000  1.0000000 )


      isym =  8      90 deg rotation - cart. axis [0,0,1]        

 cryst.   s( 8) = (     1          0         -1      )
                  (     1          0          0      )
                  (     1         -1          0      )

 cart.    s( 8) = (  0.0000000 -1.0000000  0.0000000 )
                  (  1.0000000  0.0000000  0.0000000 )
                  (  0.0000000  0.0000000  1.0000000 )


      isym =  9     180 deg rotation - cart. axis [1,0,1]        

 cryst.   s( 9) = (    -1          1          0      )
                  (     0          1          0      )
                  (     0          1         -1      )

 cart.    s( 9) = (  0.0000000  0.0000000  1.0000000 )
                  (  0.0000000 -1.0000000  0.0000000 )
                  (  1.0000000  0.0000000  0.0000000 )


      isym = 10     180 deg rotation - cart. axis [-1,0,1]       

 cryst.   s(10) = (     0          0         -1      )
                  (     0         -1          0      )
                  (    -1          0          0      )

 cart.    s(10) = (  0.0000000  0.0000000 -1.0000000 )
                  (  0.0000000 -1.0000000  0.0000000 )
                  ( -1.0000000  0.0000000  0.0000000 )


      isym = 11      90 deg rotation - cart. axis [0,1,0]        

 cryst.   s(11) = (     0          0          1      )
                  (    -1          0          1      )
                  (     0         -1          1      )

 cart.    s(11) = (  0.0000000  0.0000000  1.0000000 )
                  (  0.0000000  1.0000000  0.0000000 )
                  ( -1.0000000  0.0000000  0.0000000 )


      isym = 12      90 deg rotation - cart. axis [0,-1,0]       

 cryst.   s(12) = (     1         -1          0      )
                  (     1          0         -1      )
                  (     1          0          0      )

 cart.    s(12) = (  0.0000000  0.0000000 -1.0000000 )
                  (  0.0000000  1.0000000  0.0000000 )
                  (  1.0000000  0.0000000  0.0000000 )


      isym = 13     180 deg rotation - cart. axis [0,1,1]        

 cryst.   s(13) = (     1          0          0      )
                  (     1         -1          0      )
                  (     1          0         -1      )

 cart.    s(13) = ( -1.0000000  0.0000000  0.0000000 )
                  (  0.0000000  0.0000000  1.0000000 )
                  (  0.0000000  1.0000000  0.0000000 )


      isym = 14     180 deg rotation - cart. axis [0,1,-1]       

 cryst.   s(14) = (    -1          0          0      )
                  (     0          0         -1      )
                  (     0         -1          0      )

 cart.    s(14) = ( -1.0000000  0.0000000  0.0000000 )
                  (  0.0000000  0.0000000 -1.0000000 )
                  (  0.0000000 -1.0000000  0.0000000 )


      isym = 15      90 deg rotation - cart. axis [-1,0,0]       

 cryst.   s(15) = (     0         -1          1      )
                  (     0          0          1      )
                  (    -1          0          1      )

 cart.    s(15) = (  1.0000000  0.0000000  0.0000000 )
                  (  0.0000000  0.0000000  1.0000000 )
                  (  0.0000000 -1.0000000  0.0000000 )


      isym = 16      90 deg rotation - cart. axis [1,0,0]        

 cryst.   s(16) = (     0          1         -1      )
                  (    -1          1          0      )
                  (     0          1          0      )

 cart.    s(16) = (  1.0000000  0.0000000  0.0000000 )
                  (  0.0000000  0.0000000 -1.0000000 )
                  (  0.0000000  1.0000000  0.0000000 )


      isym = 17     120 deg rotation - cart. axis [-1,-1,-1]     

 cryst.   s(17) = (     0          0          1      )
                  (     1          0          0      )
                  (     0          1          0      )

 cart.    s(17) = (  0.0000000  1.0000000  0.0000000 )
                  (  0.0000000  0.0000000  1.0000000 )
                  (  1.0000000  0.0000000  0.0000000 )


      isym = 18     120 deg rotation - cart. axis [-1,1,1]       

 cryst.   s(18) = (     1         -1          0      )
                  (     0         -1          1      )
                  (     0         -1          0      )

 cart.    s(18) = (  0.0000000 -1.0000000  0.0000000 )
                  (  0.0000000  0.0000000  1.0000000 )
                  ( -1.0000000  0.0000000  0.0000000 )


      isym = 19     120 deg rotation - cart. axis [1,1,-1]       

 cryst.   s(19) = (    -1          1          0      )
                  (    -1          0          0      )
                  (    -1          0          1      )

 cart.    s(19) = (  0.0000000  1.0000000  0.0000000 )
                  (  0.0000000  0.0000000 -1.0000000 )
                  ( -1.0000000  0.0000000  0.0000000 )


      isym = 20     120 deg rotation - cart. axis [1,-1,1]       

 cryst.   s(20) = (     0          0         -1      )
                  (     0          1         -1      )
                  (     1          0         -1      )

 cart.    s(20) = (  0.0000000 -1.0000000  0.0000000 )
                  (  0.0000000  0.0000000 -1.0000000 )
                  (  1.0000000  0.0000000  0.0000000 )


      isym = 21     120 deg rotation - cart. axis [1,1,1]        

 cryst.   s(21) = (     0          1          0      )
                  (     0          0          1      )
                  (     1          0          0      )

 cart.    s(21) = (  0.0000000  0.0000000  1.0000000 )
                  (  1.0000000  0.0000000  0.0000000 )
                  (  0.0000000  1.0000000  0.0000000 )


      isym = 22     120 deg rotation - cart. axis [-1,1,-1]      

 cryst.   s(22) = (    -1          0          1      )
                  (    -1          1          0      )
                  (    -1          0          0      )

 cart.    s(22) = (  0.0000000  0.0000000  1.0000000 )
                  ( -1.0000000  0.0000000  0.0000000 )
                  (  0.0000000 -1.0000000  0.0000000 )


      isym = 23     120 deg rotation - cart. axis [1,-1,-1]      

 cryst.   s(23) = (     1          0         -1      )
                  (     0          0         -1      )
                  (     0          1         -1      )

 cart.    s(23) = (  0.0000000  0.0000000 -1.0000000 )
                  ( -1.0000000  0.0000000  0.0000000 )
                  (  0.0000000  1.0000000  0.0000000 )


      isym = 24     120 deg rotation - cart. axis [-1,-1,1]      

 cryst.   s(24) = (     0         -1          0      )
                  (     1         -1          0      )
                  (     0         -1          1      )

 cart.    s(24) = (  0.0000000  0.0000000 -1.0000000 )
                  (  1.0000000  0.0000000  0.0000000 )
                  (  0.0000000 -1.0000000  0.0000000 )


      isym = 25     inversion                                    

 cryst.   s(25) = (    -1          0          0      )
                  (     0         -1          0      )
                  (     0          0         -1      )

 cart.    s(25) = ( -1.0000000  0.0000000  0.0000000 )
                  (  0.0000000 -1.0000000  0.0000000 )
                  (  0.0000000  0.0000000 -1.0000000 )


      isym = 26     inv. 180 deg rotation - cart. axis [0,0,1]   

 cryst.   s(26) = (     0         -1          1      )
                  (    -1          0          1      )
                  (     0          0          1      )

 cart.    s(26) = (  1.0000000  0.0000000  0.0000000 )
                  (  0.0000000  1.0000000  0.0000000 )
                  (  0.0000000  0.0000000 -1.0000000 )


      isym = 27     inv. 180 deg rotation - cart. axis [0,1,0]   

 cryst.   s(27) = (     0          1         -1      )
                  (     0          1          0      )
                  (    -1          1          0      )

 cart.    s(27) = (  1.0000000  0.0000000  0.0000000 )
                  (  0.0000000 -1.0000000  0.0000000 )
                  (  0.0000000  0.0000000  1.0000000 )


      isym = 28     inv. 180 deg rotation - cart. axis [1,0,0]   

 cryst.   s(28) = (     1          0          0      )
                  (     1          0         -1      )
                  (     1         -1          0      )

 cart.    s(28) = ( -1.0000000  0.0000000  0.0000000 )
                  (  0.0000000  1.0000000  0.0000000 )
                  (  0.0000000  0.0000000  1.0000000 )


      isym = 29     inv. 180 deg rotation - cart. axis [1,1,0]   

 cryst.   s(29) = (     1          0         -1      )
                  (     0          1         -1      )
                  (     0          0         -1      )

 cart.    s(29) = (  0.0000000 -1.0000000  0.0000000 )
                  ( -1.0000000  0.0000000  0.0000000 )
                  (  0.0000000  0.0000000  1.0000000 )


      isym = 30     inv. 180 deg rotation - cart. axis [1,-1,0]  

 cryst.   s(30) = (     0          1          0      )
                  (     1          0          0      )
                  (     0          0          1      )

 cart.    s(30) = (  0.0000000  1.0000000  0.0000000 )
                  (  1.0000000  0.0000000  0.0000000 )
                  (  0.0000000  0.0000000  1.0000000 )


      isym = 31     inv.  90 deg rotation - cart. axis [0,0,-1]  

 cryst.   s(31) = (     0         -1          0      )
                  (     0         -1          1      )
                  (     1         -1          0      )

 cart.    s(31) = (  0.0000000 -1.0000000  0.0000000 )
                  (  1.0000000  0.0000000  0.0000000 )
                  (  0.0000000  0.0000000 -1.0000000 )


      isym = 32     inv.  90 deg rotation - cart. axis [0,0,1]   

 cryst.   s(32) = (    -1          0          1      )
                  (    -1          0          0      )
                  (    -1          1          0      )

 cart.    s(32) = (  0.0000000  1.0000000  0.0000000 )
                  ( -1.0000000  0.0000000  0.0000000 )
                  (  0.0000000  0.0000000 -1.0000000 )


      isym = 33     inv. 180 deg rotation - cart. axis [1,0,1]   

 cryst.   s(33) = (     1         -1          0      )
                  (     0         -1          0      )
                  (     0         -1          1      )

 cart.    s(33) = (  0.0000000  0.0000000 -1.0000000 )
                  (  0.0000000  1.0000000  0.0000000 )
                  ( -1.0000000  0.0000000  0.0000000 )


      isym = 34     inv. 180 deg rotation - cart. axis [-1,0,1]  

 cryst.   s(34) = (     0          0          1      )
                  (     0          1          0      )
                  (     1          0          0      )

 cart.    s(34) = (  0.0000000  0.0000000  1.0000000 )
                  (  0.0000000  1.0000000  0.0000000 )
                  (  1.0000000  0.0000000  0.0000000 )


      isym = 35     inv.  90 deg rotation - cart. axis [0,1,0]   

 cryst.   s(35) = (     0          0         -1      )
                  (     1          0         -1      )
                  (     0          1         -1      )

 cart.    s(35) = (  0.0000000  0.0000000 -1.0000000 )
                  (  0.0000000 -1.0000000  0.0000000 )
                  (  1.0000000  0.0000000  0.0000000 )


      isym = 36     inv.  90 deg rotation - cart. axis [0,-1,0]  

 cryst.   s(36) = (    -1          1          0      )
                  (    -1          0          1      )
                  (    -1          0          0      )

 cart.    s(36) = (  0.0000000  0.0000000  1.0000000 )
                  (  0.0000000 -1.0000000  0.0000000 )
                  ( -1.0000000  0.0000000  0.0000000 )


      isym = 37     inv. 180 deg rotation - cart. axis [0,1,1]   

 cryst.   s(37) = (    -1          0          0      )
                  (    -1          1          0      )
                  (    -1          0          1      )

 cart.    s(37) = (  1.0000000  0.0000000  0.0000000 )
                  (  0.0000000  0.0000000 -1.0000000 )
                  (  0.0000000 -1.0000000  0.0000000 )


      isym = 38     inv. 180 deg rotation - cart. axis [0,1,-1]  

 cryst.   s(38) = (     1          0          0      )
                  (     0          0          1      )
                  (     0          1          0      )

 cart.    s(38) = (  1.0000000  0.0000000  0.0000000 )
                  (  0.0000000  0.0000000  1.0000000 )
                  (  0.0000000  1.0000000  0.0000000 )


      isym = 39     inv.  90 deg rotation - cart. axis [-1,0,0]  

 cryst.   s(39) = (     0          1         -1      )
                  (     0          0         -1      )
                  (     1          0         -1      )

 cart.    s(39) = ( -1.0000000  0.0000000  0.0000000 )
                  (  0.0000000  0.0000000 -1.0000000 )
                  (  0.0000000  1.0000000  0.0000000 )


      isym = 40     inv.  90 deg rotation - cart. axis [1,0,0]   

 cryst.   s(40) = (     0         -1          1      )
                  (     1         -1          0      )
                  (     0         -1          0      )

 cart.    s(40) = ( -1.0000000  0.0000000  0.0000000 )
                  (  0.0000000  0.0000000  1.0000000 )
                  (  0.0000000 -1.0000000  0.0000000 )


      isym = 41     inv. 120 deg rotation - cart. axis [-1,-1,-1]

 cryst.   s(41) = (     0          0         -1      )
                  (    -1          0          0      )
                  (     0         -1          0      )

 cart.    s(41) = (  0.0000000 -1.0000000  0.0000000 )
                  (  0.0000000  0.0000000 -1.0000000 )
                  ( -1.0000000  0.0000000  0.0000000 )


      isym = 42     inv. 120 deg rotation - cart. axis [-1,1,1]  

 cryst.   s(42) = (    -1          1          0      )
                  (     0          1         -1      )
                  (     0          1          0      )

 cart.    s(42) = (  0.0000000  1.0000000  0.0000000 )
                  (  0.0000000  0.0000000 -1.0000000 )
                  (  1.0000000  0.0000000  0.0000000 )


      isym = 43     inv. 120 deg rotation - cart. axis [1,1,-1]  

 cryst.   s(43) = (     1         -1          0      )
                  (     1          0          0      )
                  (     1          0         -1      )

 cart.    s(43) = (  0.0000000 -1.0000000  0.0000000 )
                  (  0.0000000  0.0000000  1.0000000 )
                  (  1.0000000  0.0000000  0.0000000 )


      isym = 44     inv. 120 deg rotation - cart. axis [1,-1,1]  

 cryst.   s(44) = (     0          0          1      )
                  (     0         -1          1      )
                  (    -1          0          1      )

 cart.    s(44) = (  0.0000000  1.0000000  0.0000000 )
                  (  0.0000000  0.0000000  1.0000000 )
                  ( -1.0000000  0.0000000  0.0000000 )


      isym = 45     inv. 120 deg rotation - cart. axis [1,1,1]   

 cryst.   s(45) = (     0         -1          0      )
                  (     0          0         -1      )
                  (    -1          0          0      )

 cart.    s(45) = (  0.0000000  0.0000000 -1.0000000 )
                  ( -1.0000000  0.0000000  0.0000000 )
                  (  0.0000000 -1.0000000  0.0000000 )


      isym = 46     inv. 120 deg rotation - cart. axis [-1,1,-1] 

 cryst.   s(46) = (     1          0         -1      )
                  (     1         -1          0      )
                  (     1          0          0      )

 cart.    s(46) = (  0.0000000  0.0000000 -1.0000000 )
                  (  1.0000000  0.0000000  0.0000000 )
                  (  0.0000000  1.0000000  0.0000000 )


      isym = 47     inv. 120 deg rotation - cart. axis [1,-1,-1] 

 cryst.   s(47) = (    -1          0          1      )
                  (     0          0          1      )
                  (     0         -1          1      )

 cart.    s(47) = (  0.0000000  0.0000000  1.0000000 )
                  (  1.0000000  0.0000000  0.0000000 )
                  (  0.0000000 -1.0000000  0.0000000 )


      isym = 48     inv. 120 deg rotation - cart. axis [-1,-1,1] 

 cryst.   s(48) = (     0          1          0      )
                  (    -1          1          0      )
                  (     0          1         -1      )

 cart.    s(48) = (  0.0000000  0.0000000  1.0000000 )
                  ( -1.0000000  0.0000000  0.0000000 )
                  (  0.0000000  1.0000000  0.0000000 )


   Cartesian axes

     site n.     atom                  positions (alat units)
         1           Pd  tau(   1) = (   0.0000000   0.0000000   0.0000000  )

   Crystallographic axes

     site n.     atom                  positions (cryst. coord.)
         1           Pd  tau(   1) = (  0.0000000  0.0000000  0.0000000  )

     number of k points=    50  gaussian smearing, width (Ry)=  0.0010
                       cart. coord. in units 2pi/alat
        k(    1) = (   0.3535534   0.7071068   0.0000000), wk =   0.0400000
        k(    2) = (   0.3535534   0.6678231   0.0392837), wk =   0.0400000
        k(    3) = (   0.3535534   0.6285394   0.0785674), wk =   0.0400000
        k(    4) = (   0.3535534   0.5892557   0.1178511), wk =   0.0400000
        k(    5) = (   0.3535534   0.5499719   0.1571348), wk =   0.0400000
        k(    6) = (   0.3535534   0.5106882   0.1964186), wk =   0.0400000
        k(    7) = (   0.3535534   0.4714045   0.2357023), wk =   0.0400000
        k(    8) = (   0.3535534   0.4321208   0.2749860), wk =   0.0400000
        k(    9) = (   0.3535534   0.3928371   0.3142697), wk =   0.0400000
        k(   10) = (   0.3535534   0.3535534   0.3535534), wk =   0.0400000
        k(   11) = (   0.3240906   0.3240906   0.3240906), wk =   0.0400000
        k(   12) = (   0.2946278   0.2946278   0.2946278), wk =   0.0400000
        k(   13) = (   0.2651650   0.2651650   0.2651650), wk =   0.0400000
        k(   14) = (   0.2357023   0.2357023   0.2357023), wk =   0.0400000
        k(   15) = (   0.2062395   0.2062395   0.2062395), wk =   0.0400000
        k(   16) = (   0.1767767   0.1767767   0.1767767), wk =   0.0400000
        k(   17) = (   0.1473139   0.1473139   0.1473139), wk =   0.0400000
        k(   18) = (   0.1178511   0.1178511   0.1178511), wk =   0.0400000
        k(   19) = (   0.0883883   0.0883883   0.0883883), wk =   0.0400000
        k(   20) = (   0.0589256   0.0589256   0.0589256), wk =   0.0400000
        k(   21) = (   0.0294628   0.0294628   0.0294628), wk =   0.0400000
        k(   22) = (   0.0000000   0.0000000   0.0000000), wk =   0.0400000
        k(   23) = (   0.0000000   0.0471405   0.0000000), wk =   0.0400000
        k(   24) = (   0.0000000   0.0942809   0.0000000), wk =   0.0400000
        k(   25) = (   0.0000000   0.1414214   0.0000000), wk =   0.0400000
        k(   26) = (   0.0000000   0.1885618   0.0000000), wk =   0.0400000
        k(   27) = (   0.0000000   0.2357023   0.0000000), wk =   0.0400000
        k(   28) = (   0.0000000   0.2828427   0.0000000), wk =   0.0400000
        k(   29) = (   0.0000000   0.3299832   0.0000000), wk =   0.0400000
        k(   30) = (   0.0000000   0.3771236   0.0000000), wk =   0.0400000
        k(   31) = (   0.0000000   0.4242641   0.0000000), wk =   0.0400000
        k(   32) = (   0.0000000   0.4714045   0.0000000), wk =   0.0400000
        k(   33) = (   0.0000000   0.5185450   0.0000000), wk =   0.0400000
        k(   34) = (   0.0000000   0.5656854   0.0000000), wk =   0.0400000
        k(   35) = (   0.0000000   0.6128259   0.0000000), wk =   0.0400000
        k(   36) = (   0.0000000   0.6599663   0.0000000), wk =   0.0400000
        k(   37) = (   0.0000000   0.7071068   0.0000000), wk =   0.0400000
        k(   38) = (   0.0505076   0.7071068   0.0000000), wk =   0.0400000
        k(   39) = (   0.1010153   0.7071068   0.0000000), wk =   0.0400000
        k(   40) = (   0.1515229   0.7071068   0.0000000), wk =   0.0400000
        k(   41) = (   0.2020305   0.7071068  -0.0000000), wk =   0.0400000
        k(   42) = (   0.2525381   0.7071068  -0.0000000), wk =   0.0400000
        k(   43) = (   0.3030458   0.7071068   0.0000000), wk =   0.0400000
        k(   44) = (   0.3535534   0.7071068   0.0000000), wk =   0.0400000
        k(   45) = (   0.3830162   0.6776440   0.0000000), wk =   0.0400000
        k(   46) = (   0.4124790   0.6481812   0.0000000), wk =   0.0400000
        k(   47) = (   0.4419417   0.6187184   0.0000000), wk =   0.0400000
        k(   48) = (   0.4714045   0.5892557   0.0000000), wk =   0.0400000
        k(   49) = (   0.5008673   0.5597929   0.0000000), wk =   0.0400000
        k(   50) = (   0.5303301   0.5303301   0.0000000), wk =   0.0400000

                       cryst. coord.
        k(    1) = (   0.5000000   0.2500000   0.7500000), wk =   0.0400000
        k(    2) = (   0.5000000   0.2777778   0.7222222), wk =   0.0400000
        k(    3) = (   0.5000000   0.3055556   0.6944444), wk =   0.0400000
        k(    4) = (   0.5000000   0.3333333   0.6666667), wk =   0.0400000
        k(    5) = (   0.5000000   0.3611111   0.6388889), wk =   0.0400000
        k(    6) = (   0.5000000   0.3888889   0.6111111), wk =   0.0400000
        k(    7) = (   0.5000000   0.4166667   0.5833333), wk =   0.0400000
        k(    8) = (   0.5000000   0.4444444   0.5555556), wk =   0.0400000
        k(    9) = (   0.5000000   0.4722222   0.5277778), wk =   0.0400000
        k(   10) = (   0.5000000   0.5000000   0.5000000), wk =   0.0400000
        k(   11) = (   0.4583333   0.4583333   0.4583333), wk =   0.0400000
        k(   12) = (   0.4166667   0.4166667   0.4166667), wk =   0.0400000
        k(   13) = (   0.3750000   0.3750000   0.3750000), wk =   0.0400000
        k(   14) = (   0.3333333   0.3333333   0.3333333), wk =   0.0400000
        k(   15) = (   0.2916667   0.2916667   0.2916667), wk =   0.0400000
        k(   16) = (   0.2500000   0.2500000   0.2500000), wk =   0.0400000
        k(   17) = (   0.2083333   0.2083333   0.2083333), wk =   0.0400000
        k(   18) = (   0.1666667   0.1666667   0.1666667), wk =   0.0400000
        k(   19) = (   0.1250000   0.1250000   0.1250000), wk =   0.0400000
        k(   20) = (   0.0833333   0.0833333   0.0833333), wk =   0.0400000
        k(   21) = (   0.0416667   0.0416667   0.0416667), wk =   0.0400000
        k(   22) = (   0.0000000   0.0000000   0.0000000), wk =   0.0400000
        k(   23) = (   0.0333333   0.0000000   0.0333333), wk =   0.0400000
        k(   24) = (   0.0666667   0.0000000   0.0666667), wk =   0.0400000
        k(   25) = (   0.1000000   0.0000000   0.1000000), wk =   0.0400000
        k(   26) = (   0.1333333   0.0000000   0.1333333), wk =   0.0400000
        k(   27) = (   0.1666667   0.0000000   0.1666667), wk =   0.0400000
        k(   28) = (   0.2000000   0.0000000   0.2000000), wk =   0.0400000
        k(   29) = (   0.2333333   0.0000000   0.2333333), wk =   0.0400000
        k(   30) = (   0.2666667   0.0000000   0.2666667), wk =   0.0400000
        k(   31) = (   0.3000000   0.0000000   0.3000000), wk =   0.0400000
        k(   32) = (   0.3333333   0.0000000   0.3333333), wk =   0.0400000
        k(   33) = (   0.3666667   0.0000000   0.3666667), wk =   0.0400000
        k(   34) = (   0.4000000   0.0000000   0.4000000), wk =   0.0400000
        k(   35) = (   0.4333333   0.0000000   0.4333333), wk =   0.0400000
        k(   36) = (   0.4666667   0.0000000   0.4666667), wk =   0.0400000
        k(   37) = (   0.5000000   0.0000000   0.5000000), wk =   0.0400000
        k(   38) = (   0.5000000   0.0357143   0.5357143), wk =   0.0400000
        k(   39) = (   0.5000000   0.0714286   0.5714286), wk =   0.0400000
        k(   40) = (   0.5000000   0.1071429   0.6071429), wk =   0.0400000
        k(   41) = (   0.5000000   0.1428571   0.6428571), wk =   0.0400000
        k(   42) = (   0.5000000   0.1785714   0.6785714), wk =   0.0400000
        k(   43) = (   0.5000000   0.2142857   0.7142857), wk =   0.0400000
        k(   44) = (   0.5000000   0.2500000   0.7500000), wk =   0.0400000
        k(   45) = (   0.4791667   0.2708333   0.7500000), wk =   0.0400000
        k(   46) = (   0.4583333   0.2916667   0.7500000), wk =   0.0400000
        k(   47) = (   0.4375000   0.3125000   0.7500000), wk =   0.0400000
        k(   48) = (   0.4166667   0.3333333   0.7500000), wk =   0.0400000
        k(   49) = (   0.3958333   0.3541667   0.7500000), wk =   0.0400000
        k(   50) = (   0.3750000   0.3750000   0.7500000), wk =   0.0400000

     Dense  grid:     4693 G-vectors     FFT dimensions: (  24,  24,  24)

     Smooth grid:     3479 G-vectors     FFT dimensions: (  24,  24,  24)

     Estimated max dynamical RAM per process >       6.28Mb

     The potential is recalculated from file :
     ./pwscf.save/charge-density.dat


     negative rho (up, down):  8.167E-02 0.000E+00
     Starting wfc are   12 randomized atomic wfcs

     Band Structure Calculation
     Davidson diagonalization with overlap

     Computing kpt #:     1
     total cpu time spent up to now is        0.7 secs

     Computing kpt #:     2
     total cpu time spent up to now is        0.8 secs

     Computing kpt #:     3
     total cpu time spent up to now is        0.9 secs

     Computing kpt #:     4
     total cpu time spent up to now is        1.0 secs

     Computing kpt #:     5
     total cpu time spent up to now is        1.1 secs

     Computing kpt #:     6
     total cpu time spent up to now is        1.3 secs

     Computing kpt #:     7
     total cpu time spent up to now is        1.4 secs

     Computing kpt #:     8
     total cpu time spent up to now is        1.5 secs

     Computing kpt #:     9
     total cpu time spent up to now is        1.7 secs

     Computing kpt #:    10
     total cpu time spent up to now is        1.8 secs

     Computing kpt #:    11
     total cpu time spent up to now is        1.9 secs

     Computing kpt #:    12
     total cpu time spent up to now is        2.1 secs

     Computing kpt #:    13
     total cpu time spent up to now is        2.2 secs

     Computing kpt #:    14
     total cpu time spent up to now is        2.4 secs

     Computing kpt #:    15
     total cpu time spent up to now is        2.5 secs

     Computing kpt #:    16
     total cpu time spent up to now is        2.7 secs

     Computing kpt #:    17
     total cpu time spent up to now is        2.8 secs

     Computing kpt #:    18
     total cpu time spent up to now is        3.0 secs

     Computing kpt #:    19
     total cpu time spent up to now is        3.1 secs

     Computing kpt #:    20
     total cpu time spent up to now is        3.3 secs

     Computing kpt #:    21
     total cpu time spent up to now is        3.4 secs

     Computing kpt #:    22
     total cpu time spent up to now is        3.6 secs

     Computing kpt #:    23
     total cpu time spent up to now is        3.7 secs

     Computing kpt #:    24
     total cpu time spent up to now is        3.9 secs

     Computing kpt #:    25
     total cpu time spent up to now is        4.0 secs

     Computing kpt #:    26
     total cpu time spent up to now is        4.2 secs

     Computing kpt #:    27
     total cpu time spent up to now is        4.3 secs

     Computing kpt #:    28
     total cpu time spent up to now is        4.5 secs

     Computing kpt #:    29
     total cpu time spent up to now is        4.6 secs

     Computing kpt #:    30
     total cpu time spent up to now is        4.8 secs

     Computing kpt #:    31
     total cpu time spent up to now is        4.9 secs

     Computing kpt #:    32
     total cpu time spent up to now is        5.0 secs

     Computing kpt #:    33
     total cpu time spent up to now is        5.2 secs

     Computing kpt #:    34
     total cpu time spent up to now is        5.3 secs

     Computing kpt #:    35
     total cpu time spent up to now is        5.4 secs

     Computing kpt #:    36
     total cpu time spent up to now is        5.6 secs

     Computing kpt #:    37
     total cpu time spent up to now is        5.7 secs

     Computing kpt #:    38
     total cpu time spent up to now is        5.8 secs

     Computing kpt #:    39
     total cpu time spent up to now is        5.9 secs

     Computing kpt #:    40
     total cpu time spent up to now is        6.0 secs

     Computing kpt #:    41
     total cpu time spent up to now is        6.2 secs

     Computing kpt #:    42
     total cpu time spent up to now is        6.3 secs

     Computing kpt #:    43
     total cpu time spent up to now is        6.4 secs

     Computing kpt #:    44
     total cpu time spent up to now is        6.5 secs

     Computing kpt #:    45
     total cpu time spent up to now is        6.7 secs

     Computing kpt #:    46
     total cpu time spent up to now is        6.8 secs

     Computing kpt #:    47
     total cpu time spent up to now is        6.9 secs

     Computing kpt #:    48
     total cpu time spent up to now is        7.0 secs

     Computing kpt #:    49
     total cpu time spent up to now is        7.2 secs

     Computing kpt #:    50
     total cpu time spent up to now is        7.3 secs

     ethr =  6.25E-10,  avg # of iterations = 10.4

     total cpu time spent up to now is        7.3 secs

     End of band structure calculation

          k = 0.3536 0.7071 0.0000 (   412 PWs)   bands (ev):

   -31.1158 -31.1158 -31.0001  14.4570  15.4180  15.4180  17.4850  19.1210
    27.7514  27.7514  29.2913  30.4562

          k = 0.3536 0.6678 0.0393 (   424 PWs)   bands (ev):

   -31.1234 -31.1095 -30.9939  14.4982  15.3517  15.4641  17.4856  19.0461
    27.2807  27.3724  29.9165  30.9438

          k = 0.3536 0.6285 0.0786 (   420 PWs)   bands (ev):

   -31.1419 -31.0911 -30.9790  14.6180  15.1688  15.6025  17.4503  18.8707
    26.3289  26.8542  31.1418  31.9412

          k = 0.3536 0.5893 0.1179 (   420 PWs)   bands (ev):

   -31.1650 -31.0628 -30.9614  14.8050  14.9041  15.8338  17.2979  18.7153
    25.2656  26.4900  32.5904  33.0600

          k = 0.3536 0.5500 0.1571 (   420 PWs)   bands (ev):

   -31.1887 -31.0280 -30.9443  14.5927  15.0390  16.1597  17.0065  18.6601
    24.1900  26.2783  34.1546  34.1594

          k = 0.3536 0.5107 0.1964 (   422 PWs)   bands (ev):

   -31.2108 -30.9908 -30.9294  14.2672  15.2927  16.5820  16.6598  18.6782
    23.1352  26.1759  35.1171  35.7664

          k = 0.3536 0.4714 0.2357 (   424 PWs)   bands (ev):

   -31.2295 -30.9557 -30.9174  13.9616  15.5347  16.3448  17.0996  18.7206
    22.1188  26.1398  35.7576  37.3593

          k = 0.3536 0.4321 0.2750 (   426 PWs)   bands (ev):

   -31.2437 -30.9270 -30.9087  13.7110  15.7344  16.1064  17.7030  18.7607
    21.1578  26.1366  35.9706  38.8366

          k = 0.3536 0.3928 0.3143 (   424 PWs)   bands (ev):

   -31.2526 -30.9082 -30.9034  13.5467  15.8662  15.9609  18.3565  18.7874
    20.2898  26.1434  35.9351  40.0029

          k = 0.3536 0.3536 0.3536 (   434 PWs)   bands (ev):

   -31.2556 -30.9017 -30.9017  13.4894  15.9122  15.9122  18.7967  18.7967
    19.7781  26.1472  35.8949  40.4829

          k = 0.3241 0.3241 0.3241 (   422 PWs)   bands (ev):

   -31.2487 -30.9007 -30.9007  13.5018  15.9271  15.9271  18.7519  18.7519
    19.4825  26.5316  35.9592  40.5975

          k = 0.2946 0.2946 0.2946 (   422 PWs)   bands (ev):

   -31.2285 -30.8977 -30.8977  13.5347  15.9704  15.9704  18.6238  18.6238
    18.7652  27.5162  36.1484  40.9287

          k = 0.2652 0.2652 0.2652 (   422 PWs)   bands (ev):

   -31.1962 -30.8930 -30.8930  13.5731  16.0371  16.0371  17.8960  18.4294
    18.4294  28.8360  36.4501  41.4347

          k = 0.2357 0.2357 0.2357 (   425 PWs)   bands (ev):

   -31.1540 -30.8869 -30.8869  13.5857  16.1182  16.1182  17.0555  18.1944
    18.1944  30.3243  36.8364  42.0291

          k = 0.2062 0.2062 0.2062 (   422 PWs)   bands (ev):

   -31.1046 -30.8797 -30.8797  13.5176  16.1989  16.1989  16.3679  17.9510
    17.9510  31.8878  37.2525  42.5426

          k = 0.1768 0.1768 0.1768 (   429 PWs)   bands (ev):

   -31.0513 -30.8721 -30.8721  13.3056  15.9265  16.2579  16.2579  17.7357
    17.7357  33.4652  37.6070  42.7479

          k = 0.1473 0.1473 0.1473 (   423 PWs)   bands (ev):

   -30.9976 -30.8644 -30.8644  12.9501  15.7422  16.2700  16.2700  17.5847
    17.5847  35.0017  37.8038  42.6130

          k = 0.1179 0.1179 0.1179 (   426 PWs)   bands (ev):

   -30.9474 -30.8572 -30.8572  12.5363  15.7304  16.2241  16.2241  17.5159
    17.5159  36.3734  37.8992  42.3097

          k = 0.0884 0.0884 0.0884 (   423 PWs)   bands (ev):

   -30.9040 -30.8510 -30.8510  12.1531  15.7970  16.1394  16.1394  17.5128
    17.5128  36.9958  38.5373  41.9791

          k = 0.0589 0.0589 0.0589 (   423 PWs)   bands (ev):

   -30.8705 -30.8463 -30.8463  11.8537  15.8799  16.0514  16.0514  17.5401
    17.5401  36.9013  39.7763  41.7000

          k = 0.0295 0.0295 0.0295 (   411 PWs)   bands (ev):

   -30.8495 -30.8433 -30.8433  11.6657  15.9426  15.9883  15.9883  17.5678
    17.5678  36.7445  40.9246  41.5168

          k = 0.0000 0.0000 0.0000 (   411 PWs)   bands (ev):

   -30.8422 -30.8422 -30.8422  11.6018  15.9657  15.9657  15.9657  17.5788
    17.5788  36.6819  41.4532  41.4532

          k = 0.0000 0.0471 0.0000 (   411 PWs)   bands (ev):

   -30.8467 -30.8439 -30.8439  11.6564  15.9356  15.9904  15.9904  17.5475
    17.5908  36.7369  41.1778  41.4038

          k = 0.0000 0.0943 0.0000 (   419 PWs)   bands (ev):

   -30.8600 -30.8490 -30.8490  11.8185  15.8475  16.0642  16.0642  17.4568
    17.6262  36.8974  40.5634  41.2351

          k = 0.0000 0.1414 0.0000 (   427 PWs)   bands (ev):

   -30.8814 -30.8571 -30.8571  12.0815  15.7077  16.1861  16.1861  17.3168
    17.6839  37.1512  39.8811  40.8959

          k = 0.0000 0.1886 0.0000 (   419 PWs)   bands (ev):

   -30.9098 -30.8680 -30.8680  12.4327  15.5258  16.3545  16.3545  17.1463
    17.7619  37.4790  39.2481  40.3418

          k = 0.0000 0.2357 0.0000 (   435 PWs)   bands (ev):

   -30.9438 -30.8812 -30.8812  12.8484  15.3131  16.5667  16.5667  16.9770
    17.8572  37.8577  38.6913  39.5768

          k = 0.0000 0.2828 0.0000 (   423 PWs)   bands (ev):

   -30.9819 -30.8960 -30.8960  13.2847  15.0816  16.8187  16.8187  16.8616
    17.9664  38.1876  38.2622  38.6556

          k = 0.0000 0.3300 0.0000 (   431 PWs)   bands (ev):

   -31.0223 -30.9118 -30.9118  13.6662  14.8431  16.8845  17.1053  17.1053
    18.0851  37.6496  37.6496  37.6650

          k = 0.0000 0.3771 0.0000 (   431 PWs)   bands (ev):

   -31.0631 -30.9280 -30.9280  13.9008  14.6083  17.1449  17.4188  17.4188
    18.2085  36.6219  36.6219  36.9936

          k = 0.0000 0.4243 0.0000 (   432 PWs)   bands (ev):

   -31.1026 -30.9438 -30.9438  13.9535  14.3869  17.6817  17.7493  17.7493
    18.3313  35.6222  35.6222  36.0367

          k = 0.0000 0.4714 0.0000 (   432 PWs)   bands (ev):

   -31.1392 -30.9586 -30.9586  13.8767  14.1867  18.0833  18.0833  18.4400
    18.4479  34.6910  34.6910  34.7956

          k = 0.0000 0.5185 0.0000 (   432 PWs)   bands (ev):

   -31.1713 -30.9716 -30.9716  13.7430  14.0145  18.4038  18.4038  18.5528
    19.3338  33.4121  33.8635  33.8635

          k = 0.0000 0.5657 0.0000 (   428 PWs)   bands (ev):

   -31.1976 -30.9824 -30.9824  13.6033  13.8754  18.6408  18.6900  18.6900
    20.2795  32.0403  33.1727  33.1727

          k = 0.0000 0.6128 0.0000 (   436 PWs)   bands (ev):

   -31.2171 -30.9904 -30.9904  13.4874  13.7733  18.7072  18.9186  18.9186
    21.1761  30.8217  32.6499  32.6499

          k = 0.0000 0.6600 0.0000 (   440 PWs)   bands (ev):

   -31.2292 -30.9954 -30.9954  13.4121  13.7110  18.7486  19.0672  19.0672
    21.8676  29.9316  32.3228  32.3228

          k = 0.0000 0.7071 0.0000 (   444 PWs)   bands (ev):

   -31.2332 -30.9971 -30.9971  13.3861  13.6901  18.7626  19.1189  19.1189
    22.1391  29.5933  32.2114  32.2114

          k = 0.0505 0.7071 0.0000 (   440 PWs)   bands (ev):

   -31.2303 -31.0001 -30.9972  13.4266  13.7261  18.7131  18.8910  19.1190
    22.4096  29.5813  32.0759  32.0841

          k = 0.1010 0.7071 0.0000 (   432 PWs)   bands (ev):

   -31.2217 -31.0089 -30.9976  13.5444  13.8342  18.3648  18.5693  19.1193
    23.0631  29.5467  31.7186  31.7374

          k = 0.1515 0.7071 0.0000 (   428 PWs)   bands (ev):

   -31.2077 -31.0231 -30.9983  13.7283  14.0136  17.7382  18.3459  19.1197
    23.8990  29.4930  31.1546  31.3291

          k = 0.2020 0.7071-0.0000 (   426 PWs)   bands (ev):

   -31.1892 -31.0420 -30.9989  13.9570  14.2635  17.1017  18.0712  19.1202
    24.8220  29.4272  30.4379  30.9572

          k = 0.2525 0.7071-0.0000 (   424 PWs)   bands (ev):

   -31.1670 -31.0645 -30.9996  14.1939  14.5823  16.4926  17.7907  19.1206
    25.7886  29.3609  29.6101  30.6781

          k = 0.3030 0.7071 0.0000 (   422 PWs)   bands (ev):

   -31.1421 -31.0895 -31.0000  14.3828  14.9681  15.9282  17.5706  19.1209
    26.7722  28.7052  29.3104  30.5111

          k = 0.3536 0.7071 0.0000 (   412 PWs)   bands (ev):

   -31.1158 -31.1158 -31.0001  14.4570  15.4180  15.4180  17.4850  19.1210
    27.7514  27.7514  29.2913  30.4562

          k = 0.3830 0.6776 0.0000 (   419 PWs)   bands (ev):

   -31.1304 -31.1020 -30.9981  14.4408  15.1467  15.7083  17.5138  19.0986
    27.2223  27.9512  29.4719  30.6960

          k = 0.4125 0.6482 0.0000 (   422 PWs)   bands (ev):

   -31.1429 -31.0926 -30.9918  14.3852  14.9199  16.0097  17.5865  19.0327
    26.7734  27.7222  29.6276  31.4887

          k = 0.4419 0.6187 0.0000 (   424 PWs)   bands (ev):

   -31.1530 -31.0874 -30.9830  14.2865  14.7688  16.3052  17.6795  18.9306
    26.4141  27.4270  29.6660  32.5455

          k = 0.4714 0.5893 0.0000 (   425 PWs)   bands (ev):

   -31.1604 -31.0852 -30.9741  14.1730  14.6877  16.5686  17.7683  18.8106
    26.1522  27.1765  29.6750  33.6243

          k = 0.5009 0.5598 0.0000 (   427 PWs)   bands (ev):

   -31.1649 -31.0844 -30.9678  14.0880  14.6496  16.7605  17.8315  18.7067
    25.9930  27.0125  29.6775  34.5331

          k = 0.5303 0.5303 0.0000 (   431 PWs)   bands (ev):

   -31.1664 -31.0843 -30.9656  14.0572  14.6383  16.8329  17.8544  18.6640
    25.9397  26.9556  29.6781  34.9288

     Writing output data file pwscf.save

     init_run     :      0.64s CPU      0.41s WALL (       1 calls)
     electrons    :     13.44s CPU      6.72s WALL (       1 calls)

     Called by init_run:
     wfcinit      :      0.00s CPU      0.00s WALL (       1 calls)
     wfcinit:atom :      0.05s CPU      0.02s WALL (      50 calls)
     wfcinit:wfcr :      1.22s CPU      0.66s WALL (      50 calls)
     potinit      :      0.02s CPU      0.01s WALL (       1 calls)

     Called by electrons:
     c_bands      :     13.42s CPU      6.72s WALL (       1 calls)
     v_of_rho     :      0.02s CPU      0.01s WALL (       1 calls)
     v_h          :      0.00s CPU      0.00s WALL (       1 calls)
     v_xc         :      0.02s CPU      0.01s WALL (       1 calls)
     newd         :      0.02s CPU      0.03s WALL (       1 calls)

     Called by c_bands:
     init_us_2    :      0.05s CPU      0.02s WALL (      50 calls)
     cegterg      :     11.92s CPU      5.89s WALL (      50 calls)

     Called by sum_band:

     Called by *egterg:
     h_psi        :     10.02s CPU      4.98s WALL (     622 calls)
     s_psi        :      0.06s CPU      0.06s WALL (     622 calls)
     g_psi        :      0.06s CPU      0.02s WALL (     522 calls)
     cdiaghg      :      2.11s CPU      1.04s WALL (     572 calls)
     cegterg:over :      0.55s CPU      0.15s WALL (     522 calls)
     cegterg:upda :      0.16s CPU      0.13s WALL (     522 calls)
     cegterg:last :      0.12s CPU      0.07s WALL (     117 calls)

     Called by h_psi:
     h_psi:pot    :     10.00s CPU      4.96s WALL (     622 calls)
     h_psi:calbec :      0.27s CPU      0.07s WALL (     622 calls)
     vloc_psi     :      9.58s CPU      4.81s WALL (     622 calls)
     add_vuspsi   :      0.11s CPU      0.06s WALL (     622 calls)

     General routines
     calbec       :      0.22s CPU      0.07s WALL (     622 calls)
     fft          :      0.02s CPU      0.01s WALL (      13 calls)
     ffts         :      0.00s CPU      0.00s WALL (       1 calls)
     fftw         :      9.05s CPU      4.44s WALL (    9532 calls)
     interpolate  :      0.00s CPU      0.00s WALL (       1 calls)
     davcio       :      0.00s CPU      0.00s WALL (      50 calls)

     Parallel routines
     fft_scatter  :      0.23s CPU      0.20s WALL (    9546 calls)

     PWSCF        :    14.47s CPU         7.56s WALL


   This run was terminated on:  19:31:37  25Feb2021            

=------------------------------------------------------------------------------=
   JOB DONE.
=------------------------------------------------------------------------------=
