
     Program PWSCF v.6.0 (svn rev. 13079) starts on 25Feb2021 at 16:12:32 

     This program is part of the open-source Quantum ESPRESSO suite
     for quantum simulation of materials; please cite
         "P. Giannozzi et al., J. Phys.:Condens. Matter 21 395502 (2009);
          URL http://www.quantum-espresso.org", 
     in publications or presentations arising from this work. More details at
     http://www.quantum-espresso.org/quote

     Parallel version (MPI), running on     1 processors
     Reading input from espresso.pwi
Warning: card &IONS ignored
Warning: card / ignored
Warning: card &CELL ignored
Warning: card / ignored

     Current dimensions of program PWSCF are:
     Max number of different atomic species (ntypx) = 10
     Max number of k-points (npk) =  40000
     Max angular momentum in pseudopotentials (lmaxx) =  3
     Message from routine input:
     WARNING: "startingwfc" set to atomic+random may spoil restart

     Atomic positions and unit cell read from directory:
     ./pwscf.save/


     IMPORTANT: XC functional enforced from input :
     Exchange-correlation      = PBE ( 1  4  3  4 0 0)
     Any further DFT definition will be discarded
     Please, verify this is what you really want


     Subspace diagonalization in iterative solution of the eigenvalue problem:
     a serial algorithm will be used


     G-vector sticks info
     --------------------
     sticks:   dense  smooth     PW     G-vecs:    dense   smooth      PW
     Sum         563     459    151                 8589     6099    1157



     bravais-lattice index     =            0
     lattice parameter (alat)  =       6.1616  a.u.
     unit-cell volume          =     180.0784 (a.u.)^3
     number of atoms/cell      =            1
     number of atomic types    =            1
     number of electrons       =         7.00
     number of Kohn-Sham states=            8
     kinetic-energy cutoff     =      40.0000  Ry
     charge density cutoff     =     200.0000  Ry
     Exchange-correlation      = PBE ( 1  4  3  4 0 0)

     celldm(1)=   6.161614  celldm(2)=   0.000000  celldm(3)=   0.000000
     celldm(4)=   0.000000  celldm(5)=   0.000000  celldm(6)=   0.000000

     crystal axes: (cart. coord. in units of alat)
               a(1) = (  -0.577350   0.577350   0.577350 )  
               a(2) = (   0.577350  -0.577350   0.577350 )  
               a(3) = (   0.577350   0.577350  -0.577350 )  

     reciprocal axes: (cart. coord. in units 2 pi/alat)
               b(1) = (  0.000000  0.866025  0.866025 )  
               b(2) = (  0.866025  0.000000  0.866025 )  
               b(3) = (  0.866025  0.866025  0.000000 )  


     PseudoPot. # 1 for Br read from file:
     /home/inukai/tango/tests/1element/qe_fit_v2_Br/../pseudo/br_pbe_v1.4.uspp.F.UPF
     MD5 check sum: d3ffb7b29f6225aa16fe06858fb2a80b
     Pseudo is Ultrasoft + core correction, Zval =  7.0
     Generated by new atomic code, or converted to UPF format
     Using radial grid of  879 points,  6 beta functions with: 
                l(1) =   0
                l(2) =   0
                l(3) =   1
                l(4) =   1
                l(5) =   2
                l(6) =   2
     Q(r) pseudized with  8 coefficients,  rinner =    1.100   1.100   1.100
                                                       1.100   1.100

     atomic species   valence    mass     pseudopotential
        Br             7.00    79.90400     Br( 1.00)

     48 Sym. Ops., with inversion, found


                                    s                        frac. trans.

      isym =  1     identity                                     

 cryst.   s( 1) = (     1          0          0      )
                  (     0          1          0      )
                  (     0          0          1      )

 cart.    s( 1) = (  1.0000000  0.0000000  0.0000000 )
                  (  0.0000000  1.0000000  0.0000000 )
                  (  0.0000000  0.0000000  1.0000000 )


      isym =  2     180 deg rotation - cart. axis [0,0,1]        

 cryst.   s( 2) = (     0          1          0      )
                  (     1          0          0      )
                  (    -1         -1         -1      )

 cart.    s( 2) = ( -1.0000000  0.0000000  0.0000000 )
                  (  0.0000000 -1.0000000  0.0000000 )
                  (  0.0000000  0.0000000  1.0000000 )


      isym =  3     180 deg rotation - cart. axis [0,1,0]        

 cryst.   s( 3) = (     0          0          1      )
                  (    -1         -1         -1      )
                  (     1          0          0      )

 cart.    s( 3) = ( -1.0000000  0.0000000  0.0000000 )
                  (  0.0000000  1.0000000  0.0000000 )
                  (  0.0000000  0.0000000 -1.0000000 )


      isym =  4     180 deg rotation - cart. axis [1,0,0]        

 cryst.   s( 4) = (    -1         -1         -1      )
                  (     0          0          1      )
                  (     0          1          0      )

 cart.    s( 4) = (  1.0000000  0.0000000  0.0000000 )
                  (  0.0000000 -1.0000000  0.0000000 )
                  (  0.0000000  0.0000000 -1.0000000 )


      isym =  5     180 deg rotation - cart. axis [1,1,0]        

 cryst.   s( 5) = (    -1          0          0      )
                  (     0         -1          0      )
                  (     1          1          1      )

 cart.    s( 5) = (  0.0000000  1.0000000  0.0000000 )
                  (  1.0000000  0.0000000  0.0000000 )
                  (  0.0000000  0.0000000 -1.0000000 )


      isym =  6     180 deg rotation - cart. axis [1,-1,0]       

 cryst.   s( 6) = (     0         -1          0      )
                  (    -1          0          0      )
                  (     0          0         -1      )

 cart.    s( 6) = (  0.0000000 -1.0000000  0.0000000 )
                  ( -1.0000000  0.0000000  0.0000000 )
                  (  0.0000000  0.0000000 -1.0000000 )


      isym =  7      90 deg rotation - cart. axis [0,0,-1]       

 cryst.   s( 7) = (     1          1          1      )
                  (     0          0         -1      )
                  (    -1          0          0      )

 cart.    s( 7) = (  0.0000000  1.0000000  0.0000000 )
                  ( -1.0000000  0.0000000  0.0000000 )
                  (  0.0000000  0.0000000  1.0000000 )


      isym =  8      90 deg rotation - cart. axis [0,0,1]        

 cryst.   s( 8) = (     0          0         -1      )
                  (     1          1          1      )
                  (     0         -1          0      )

 cart.    s( 8) = (  0.0000000 -1.0000000  0.0000000 )
                  (  1.0000000  0.0000000  0.0000000 )
                  (  0.0000000  0.0000000  1.0000000 )


      isym =  9     180 deg rotation - cart. axis [1,0,1]        

 cryst.   s( 9) = (    -1          0          0      )
                  (     1          1          1      )
                  (     0          0         -1      )

 cart.    s( 9) = (  0.0000000  0.0000000  1.0000000 )
                  (  0.0000000 -1.0000000  0.0000000 )
                  (  1.0000000  0.0000000  0.0000000 )


      isym = 10     180 deg rotation - cart. axis [-1,0,1]       

 cryst.   s(10) = (     0          0         -1      )
                  (     0         -1          0      )
                  (    -1          0          0      )

 cart.    s(10) = (  0.0000000  0.0000000 -1.0000000 )
                  (  0.0000000 -1.0000000  0.0000000 )
                  ( -1.0000000  0.0000000  0.0000000 )


      isym = 11      90 deg rotation - cart. axis [0,1,0]        

 cryst.   s(11) = (     1          1          1      )
                  (    -1          0          0      )
                  (     0         -1          0      )

 cart.    s(11) = (  0.0000000  0.0000000  1.0000000 )
                  (  0.0000000  1.0000000  0.0000000 )
                  ( -1.0000000  0.0000000  0.0000000 )


      isym = 12      90 deg rotation - cart. axis [0,-1,0]       

 cryst.   s(12) = (     0         -1          0      )
                  (     0          0         -1      )
                  (     1          1          1      )

 cart.    s(12) = (  0.0000000  0.0000000 -1.0000000 )
                  (  0.0000000  1.0000000  0.0000000 )
                  (  1.0000000  0.0000000  0.0000000 )


      isym = 13     180 deg rotation - cart. axis [0,1,1]        

 cryst.   s(13) = (     1          1          1      )
                  (     0         -1          0      )
                  (     0          0         -1      )

 cart.    s(13) = ( -1.0000000  0.0000000  0.0000000 )
                  (  0.0000000  0.0000000  1.0000000 )
                  (  0.0000000  1.0000000  0.0000000 )


      isym = 14     180 deg rotation - cart. axis [0,1,-1]       

 cryst.   s(14) = (    -1          0          0      )
                  (     0          0         -1      )
                  (     0         -1          0      )

 cart.    s(14) = ( -1.0000000  0.0000000  0.0000000 )
                  (  0.0000000  0.0000000 -1.0000000 )
                  (  0.0000000 -1.0000000  0.0000000 )


      isym = 15      90 deg rotation - cart. axis [-1,0,0]       

 cryst.   s(15) = (     0         -1          0      )
                  (     1          1          1      )
                  (    -1          0          0      )

 cart.    s(15) = (  1.0000000  0.0000000  0.0000000 )
                  (  0.0000000  0.0000000  1.0000000 )
                  (  0.0000000 -1.0000000  0.0000000 )


      isym = 16      90 deg rotation - cart. axis [1,0,0]        

 cryst.   s(16) = (     0          0         -1      )
                  (    -1          0          0      )
                  (     1          1          1      )

 cart.    s(16) = (  1.0000000  0.0000000  0.0000000 )
                  (  0.0000000  0.0000000 -1.0000000 )
                  (  0.0000000  1.0000000  0.0000000 )


      isym = 17     120 deg rotation - cart. axis [-1,-1,-1]     

 cryst.   s(17) = (     0          0          1      )
                  (     1          0          0      )
                  (     0          1          0      )

 cart.    s(17) = (  0.0000000  1.0000000  0.0000000 )
                  (  0.0000000  0.0000000  1.0000000 )
                  (  1.0000000  0.0000000  0.0000000 )


      isym = 18     120 deg rotation - cart. axis [-1,1,1]       

 cryst.   s(18) = (     1          0          0      )
                  (     0          0          1      )
                  (    -1         -1         -1      )

 cart.    s(18) = (  0.0000000 -1.0000000  0.0000000 )
                  (  0.0000000  0.0000000  1.0000000 )
                  ( -1.0000000  0.0000000  0.0000000 )


      isym = 19     120 deg rotation - cart. axis [1,1,-1]       

 cryst.   s(19) = (     0          1          0      )
                  (    -1         -1         -1      )
                  (     0          0          1      )

 cart.    s(19) = (  0.0000000  1.0000000  0.0000000 )
                  (  0.0000000  0.0000000 -1.0000000 )
                  ( -1.0000000  0.0000000  0.0000000 )


      isym = 20     120 deg rotation - cart. axis [1,-1,1]       

 cryst.   s(20) = (    -1         -1         -1      )
                  (     0          1          0      )
                  (     1          0          0      )

 cart.    s(20) = (  0.0000000 -1.0000000  0.0000000 )
                  (  0.0000000  0.0000000 -1.0000000 )
                  (  1.0000000  0.0000000  0.0000000 )


      isym = 21     120 deg rotation - cart. axis [1,1,1]        

 cryst.   s(21) = (     0          1          0      )
                  (     0          0          1      )
                  (     1          0          0      )

 cart.    s(21) = (  0.0000000  0.0000000  1.0000000 )
                  (  1.0000000  0.0000000  0.0000000 )
                  (  0.0000000  1.0000000  0.0000000 )


      isym = 22     120 deg rotation - cart. axis [-1,1,-1]      

 cryst.   s(22) = (     0          0          1      )
                  (     0          1          0      )
                  (    -1         -1         -1      )

 cart.    s(22) = (  0.0000000  0.0000000  1.0000000 )
                  ( -1.0000000  0.0000000  0.0000000 )
                  (  0.0000000 -1.0000000  0.0000000 )


      isym = 23     120 deg rotation - cart. axis [1,-1,-1]      

 cryst.   s(23) = (     1          0          0      )
                  (    -1         -1         -1      )
                  (     0          1          0      )

 cart.    s(23) = (  0.0000000  0.0000000 -1.0000000 )
                  ( -1.0000000  0.0000000  0.0000000 )
                  (  0.0000000  1.0000000  0.0000000 )


      isym = 24     120 deg rotation - cart. axis [-1,-1,1]      

 cryst.   s(24) = (    -1         -1         -1      )
                  (     1          0          0      )
                  (     0          0          1      )

 cart.    s(24) = (  0.0000000  0.0000000 -1.0000000 )
                  (  1.0000000  0.0000000  0.0000000 )
                  (  0.0000000 -1.0000000  0.0000000 )


      isym = 25     inversion                                    

 cryst.   s(25) = (    -1          0          0      )
                  (     0         -1          0      )
                  (     0          0         -1      )

 cart.    s(25) = ( -1.0000000  0.0000000  0.0000000 )
                  (  0.0000000 -1.0000000  0.0000000 )
                  (  0.0000000  0.0000000 -1.0000000 )


      isym = 26     inv. 180 deg rotation - cart. axis [0,0,1]   

 cryst.   s(26) = (     0         -1          0      )
                  (    -1          0          0      )
                  (     1          1          1      )

 cart.    s(26) = (  1.0000000  0.0000000  0.0000000 )
                  (  0.0000000  1.0000000  0.0000000 )
                  (  0.0000000  0.0000000 -1.0000000 )


      isym = 27     inv. 180 deg rotation - cart. axis [0,1,0]   

 cryst.   s(27) = (     0          0         -1      )
                  (     1          1          1      )
                  (    -1          0          0      )

 cart.    s(27) = (  1.0000000  0.0000000  0.0000000 )
                  (  0.0000000 -1.0000000  0.0000000 )
                  (  0.0000000  0.0000000  1.0000000 )


      isym = 28     inv. 180 deg rotation - cart. axis [1,0,0]   

 cryst.   s(28) = (     1          1          1      )
                  (     0          0         -1      )
                  (     0         -1          0      )

 cart.    s(28) = ( -1.0000000  0.0000000  0.0000000 )
                  (  0.0000000  1.0000000  0.0000000 )
                  (  0.0000000  0.0000000  1.0000000 )


      isym = 29     inv. 180 deg rotation - cart. axis [1,1,0]   

 cryst.   s(29) = (     1          0          0      )
                  (     0          1          0      )
                  (    -1         -1         -1      )

 cart.    s(29) = (  0.0000000 -1.0000000  0.0000000 )
                  ( -1.0000000  0.0000000  0.0000000 )
                  (  0.0000000  0.0000000  1.0000000 )


      isym = 30     inv. 180 deg rotation - cart. axis [1,-1,0]  

 cryst.   s(30) = (     0          1          0      )
                  (     1          0          0      )
                  (     0          0          1      )

 cart.    s(30) = (  0.0000000  1.0000000  0.0000000 )
                  (  1.0000000  0.0000000  0.0000000 )
                  (  0.0000000  0.0000000  1.0000000 )


      isym = 31     inv.  90 deg rotation - cart. axis [0,0,-1]  

 cryst.   s(31) = (    -1         -1         -1      )
                  (     0          0          1      )
                  (     1          0          0      )

 cart.    s(31) = (  0.0000000 -1.0000000  0.0000000 )
                  (  1.0000000  0.0000000  0.0000000 )
                  (  0.0000000  0.0000000 -1.0000000 )


      isym = 32     inv.  90 deg rotation - cart. axis [0,0,1]   

 cryst.   s(32) = (     0          0          1      )
                  (    -1         -1         -1      )
                  (     0          1          0      )

 cart.    s(32) = (  0.0000000  1.0000000  0.0000000 )
                  ( -1.0000000  0.0000000  0.0000000 )
                  (  0.0000000  0.0000000 -1.0000000 )


      isym = 33     inv. 180 deg rotation - cart. axis [1,0,1]   

 cryst.   s(33) = (     1          0          0      )
                  (    -1         -1         -1      )
                  (     0          0          1      )

 cart.    s(33) = (  0.0000000  0.0000000 -1.0000000 )
                  (  0.0000000  1.0000000  0.0000000 )
                  ( -1.0000000  0.0000000  0.0000000 )


      isym = 34     inv. 180 deg rotation - cart. axis [-1,0,1]  

 cryst.   s(34) = (     0          0          1      )
                  (     0          1          0      )
                  (     1          0          0      )

 cart.    s(34) = (  0.0000000  0.0000000  1.0000000 )
                  (  0.0000000  1.0000000  0.0000000 )
                  (  1.0000000  0.0000000  0.0000000 )


      isym = 35     inv.  90 deg rotation - cart. axis [0,1,0]   

 cryst.   s(35) = (    -1         -1         -1      )
                  (     1          0          0      )
                  (     0          1          0      )

 cart.    s(35) = (  0.0000000  0.0000000 -1.0000000 )
                  (  0.0000000 -1.0000000  0.0000000 )
                  (  1.0000000  0.0000000  0.0000000 )


      isym = 36     inv.  90 deg rotation - cart. axis [0,-1,0]  

 cryst.   s(36) = (     0          1          0      )
                  (     0          0          1      )
                  (    -1         -1         -1      )

 cart.    s(36) = (  0.0000000  0.0000000  1.0000000 )
                  (  0.0000000 -1.0000000  0.0000000 )
                  ( -1.0000000  0.0000000  0.0000000 )


      isym = 37     inv. 180 deg rotation - cart. axis [0,1,1]   

 cryst.   s(37) = (    -1         -1         -1      )
                  (     0          1          0      )
                  (     0          0          1      )

 cart.    s(37) = (  1.0000000  0.0000000  0.0000000 )
                  (  0.0000000  0.0000000 -1.0000000 )
                  (  0.0000000 -1.0000000  0.0000000 )


      isym = 38     inv. 180 deg rotation - cart. axis [0,1,-1]  

 cryst.   s(38) = (     1          0          0      )
                  (     0          0          1      )
                  (     0          1          0      )

 cart.    s(38) = (  1.0000000  0.0000000  0.0000000 )
                  (  0.0000000  0.0000000  1.0000000 )
                  (  0.0000000  1.0000000  0.0000000 )


      isym = 39     inv.  90 deg rotation - cart. axis [-1,0,0]  

 cryst.   s(39) = (     0          1          0      )
                  (    -1         -1         -1      )
                  (     1          0          0      )

 cart.    s(39) = ( -1.0000000  0.0000000  0.0000000 )
                  (  0.0000000  0.0000000 -1.0000000 )
                  (  0.0000000  1.0000000  0.0000000 )


      isym = 40     inv.  90 deg rotation - cart. axis [1,0,0]   

 cryst.   s(40) = (     0          0          1      )
                  (     1          0          0      )
                  (    -1         -1         -1      )

 cart.    s(40) = ( -1.0000000  0.0000000  0.0000000 )
                  (  0.0000000  0.0000000  1.0000000 )
                  (  0.0000000 -1.0000000  0.0000000 )


      isym = 41     inv. 120 deg rotation - cart. axis [-1,-1,-1]

 cryst.   s(41) = (     0          0         -1      )
                  (    -1          0          0      )
                  (     0         -1          0      )

 cart.    s(41) = (  0.0000000 -1.0000000  0.0000000 )
                  (  0.0000000  0.0000000 -1.0000000 )
                  ( -1.0000000  0.0000000  0.0000000 )


      isym = 42     inv. 120 deg rotation - cart. axis [-1,1,1]  

 cryst.   s(42) = (    -1          0          0      )
                  (     0          0         -1      )
                  (     1          1          1      )

 cart.    s(42) = (  0.0000000  1.0000000  0.0000000 )
                  (  0.0000000  0.0000000 -1.0000000 )
                  (  1.0000000  0.0000000  0.0000000 )


      isym = 43     inv. 120 deg rotation - cart. axis [1,1,-1]  

 cryst.   s(43) = (     0         -1          0      )
                  (     1          1          1      )
                  (     0          0         -1      )

 cart.    s(43) = (  0.0000000 -1.0000000  0.0000000 )
                  (  0.0000000  0.0000000  1.0000000 )
                  (  1.0000000  0.0000000  0.0000000 )


      isym = 44     inv. 120 deg rotation - cart. axis [1,-1,1]  

 cryst.   s(44) = (     1          1          1      )
                  (     0         -1          0      )
                  (    -1          0          0      )

 cart.    s(44) = (  0.0000000  1.0000000  0.0000000 )
                  (  0.0000000  0.0000000  1.0000000 )
                  ( -1.0000000  0.0000000  0.0000000 )


      isym = 45     inv. 120 deg rotation - cart. axis [1,1,1]   

 cryst.   s(45) = (     0         -1          0      )
                  (     0          0         -1      )
                  (    -1          0          0      )

 cart.    s(45) = (  0.0000000  0.0000000 -1.0000000 )
                  ( -1.0000000  0.0000000  0.0000000 )
                  (  0.0000000 -1.0000000  0.0000000 )


      isym = 46     inv. 120 deg rotation - cart. axis [-1,1,-1] 

 cryst.   s(46) = (     0          0         -1      )
                  (     0         -1          0      )
                  (     1          1          1      )

 cart.    s(46) = (  0.0000000  0.0000000 -1.0000000 )
                  (  1.0000000  0.0000000  0.0000000 )
                  (  0.0000000  1.0000000  0.0000000 )


      isym = 47     inv. 120 deg rotation - cart. axis [1,-1,-1] 

 cryst.   s(47) = (    -1          0          0      )
                  (     1          1          1      )
                  (     0         -1          0      )

 cart.    s(47) = (  0.0000000  0.0000000  1.0000000 )
                  (  1.0000000  0.0000000  0.0000000 )
                  (  0.0000000 -1.0000000  0.0000000 )


      isym = 48     inv. 120 deg rotation - cart. axis [-1,-1,1] 

 cryst.   s(48) = (     1          1          1      )
                  (    -1          0          0      )
                  (     0          0         -1      )

 cart.    s(48) = (  0.0000000  0.0000000  1.0000000 )
                  ( -1.0000000  0.0000000  0.0000000 )
                  (  0.0000000  1.0000000  0.0000000 )


   Cartesian axes

     site n.     atom                  positions (alat units)
         1           Br  tau(   1) = (   0.0000000   0.0000000   0.0000000  )

   Crystallographic axes

     site n.     atom                  positions (cryst. coord.)
         1           Br  tau(   1) = (  0.0000000  0.0000000  0.0000000  )

     number of k points=    50  gaussian smearing, width (Ry)=  0.0010
                       cart. coord. in units 2pi/alat
        k(    1) = (   0.0000000   0.0000000   0.0000000), wk =   0.0400000
        k(    2) = (   0.0000000   0.0618590   0.0000000), wk =   0.0400000
        k(    3) = (   0.0000000   0.1237179   0.0000000), wk =   0.0400000
        k(    4) = (   0.0000000   0.1855769   0.0000000), wk =   0.0400000
        k(    5) = (   0.0000000   0.2474358   0.0000000), wk =   0.0400000
        k(    6) = (   0.0000000   0.3092948   0.0000000), wk =   0.0400000
        k(    7) = (   0.0000000   0.3711537   0.0000000), wk =   0.0400000
        k(    8) = (   0.0000000   0.4330127   0.0000000), wk =   0.0400000
        k(    9) = (   0.0000000   0.4948717   0.0000000), wk =   0.0400000
        k(   10) = (   0.0000000   0.5567306   0.0000000), wk =   0.0400000
        k(   11) = (   0.0000000   0.6185896   0.0000000), wk =   0.0400000
        k(   12) = (   0.0000000   0.6804485   0.0000000), wk =   0.0400000
        k(   13) = (   0.0000000   0.7423075   0.0000000), wk =   0.0400000
        k(   14) = (   0.0000000   0.8041664   0.0000000), wk =   0.0400000
        k(   15) = (   0.0000000   0.8660254   0.0000000), wk =   0.0400000
        k(   16) = (   0.0433013   0.8227241   0.0000000), wk =   0.0400000
        k(   17) = (   0.0866025   0.7794229   0.0000000), wk =   0.0400000
        k(   18) = (   0.1299038   0.7361216   0.0000000), wk =   0.0400000
        k(   19) = (   0.1732051   0.6928203   0.0000000), wk =   0.0400000
        k(   20) = (   0.2165064   0.6495191   0.0000000), wk =   0.0400000
        k(   21) = (   0.2598076   0.6062178   0.0000000), wk =   0.0400000
        k(   22) = (   0.3031089   0.5629165   0.0000000), wk =   0.0400000
        k(   23) = (   0.3464102   0.5196152   0.0000000), wk =   0.0400000
        k(   24) = (   0.3897114   0.4763140   0.0000000), wk =   0.0400000
        k(   25) = (   0.4330127   0.4330127   0.0000000), wk =   0.0400000
        k(   26) = (   0.3936479   0.3936479   0.0000000), wk =   0.0400000
        k(   27) = (   0.3542831   0.3542831   0.0000000), wk =   0.0400000
        k(   28) = (   0.3149183   0.3149183   0.0000000), wk =   0.0400000
        k(   29) = (   0.2755535   0.2755535   0.0000000), wk =   0.0400000
        k(   30) = (   0.2361887   0.2361887   0.0000000), wk =   0.0400000
        k(   31) = (   0.1968240   0.1968240   0.0000000), wk =   0.0400000
        k(   32) = (   0.1574592   0.1574592   0.0000000), wk =   0.0400000
        k(   33) = (   0.1180944   0.1180944   0.0000000), wk =   0.0400000
        k(   34) = (   0.0787296   0.0787296   0.0000000), wk =   0.0400000
        k(   35) = (   0.0393648   0.0393648   0.0000000), wk =   0.0400000
        k(   36) = (   0.0000000   0.0000000   0.0000000), wk =   0.0400000
        k(   37) = (   0.0309295   0.0309295   0.0309295), wk =   0.0400000
        k(   38) = (   0.0618590   0.0618590   0.0618590), wk =   0.0400000
        k(   39) = (   0.0927884   0.0927884   0.0927884), wk =   0.0400000
        k(   40) = (   0.1237179   0.1237179   0.1237179), wk =   0.0400000
        k(   41) = (   0.1546474   0.1546474   0.1546474), wk =   0.0400000
        k(   42) = (   0.1855769   0.1855769   0.1855769), wk =   0.0400000
        k(   43) = (   0.2165064   0.2165064   0.2165064), wk =   0.0400000
        k(   44) = (   0.2474358   0.2474358   0.2474358), wk =   0.0400000
        k(   45) = (   0.2783653   0.2783653   0.2783653), wk =   0.0400000
        k(   46) = (   0.3092948   0.3092948   0.3092948), wk =   0.0400000
        k(   47) = (   0.3402243   0.3402243   0.3402243), wk =   0.0400000
        k(   48) = (   0.3711537   0.3711537   0.3711537), wk =   0.0400000
        k(   49) = (   0.4020832   0.4020832   0.4020832), wk =   0.0400000
        k(   50) = (   0.4330127   0.4330127   0.4330127), wk =   0.0400000

                       cryst. coord.
        k(    1) = (   0.0000000   0.0000000   0.0000000), wk =   0.0400000
        k(    2) = (   0.0357143  -0.0357143   0.0357143), wk =   0.0400000
        k(    3) = (   0.0714286  -0.0714286   0.0714286), wk =   0.0400000
        k(    4) = (   0.1071429  -0.1071429   0.1071429), wk =   0.0400000
        k(    5) = (   0.1428571  -0.1428571   0.1428571), wk =   0.0400000
        k(    6) = (   0.1785714  -0.1785714   0.1785714), wk =   0.0400000
        k(    7) = (   0.2142857  -0.2142857   0.2142857), wk =   0.0400000
        k(    8) = (   0.2500000  -0.2500000   0.2500000), wk =   0.0400000
        k(    9) = (   0.2857143  -0.2857143   0.2857143), wk =   0.0400000
        k(   10) = (   0.3214286  -0.3214286   0.3214286), wk =   0.0400000
        k(   11) = (   0.3571429  -0.3571429   0.3571429), wk =   0.0400000
        k(   12) = (   0.3928571  -0.3928571   0.3928571), wk =   0.0400000
        k(   13) = (   0.4285714  -0.4285714   0.4285714), wk =   0.0400000
        k(   14) = (   0.4642857  -0.4642857   0.4642857), wk =   0.0400000
        k(   15) = (   0.5000000  -0.5000000   0.5000000), wk =   0.0400000
        k(   16) = (   0.4500000  -0.4500000   0.5000000), wk =   0.0400000
        k(   17) = (   0.4000000  -0.4000000   0.5000000), wk =   0.0400000
        k(   18) = (   0.3500000  -0.3500000   0.5000000), wk =   0.0400000
        k(   19) = (   0.3000000  -0.3000000   0.5000000), wk =   0.0400000
        k(   20) = (   0.2500000  -0.2500000   0.5000000), wk =   0.0400000
        k(   21) = (   0.2000000  -0.2000000   0.5000000), wk =   0.0400000
        k(   22) = (   0.1500000  -0.1500000   0.5000000), wk =   0.0400000
        k(   23) = (   0.1000000  -0.1000000   0.5000000), wk =   0.0400000
        k(   24) = (   0.0500000  -0.0500000   0.5000000), wk =   0.0400000
        k(   25) = (   0.0000000   0.0000000   0.5000000), wk =   0.0400000
        k(   26) = (   0.0000000   0.0000000   0.4545455), wk =   0.0400000
        k(   27) = (   0.0000000   0.0000000   0.4090909), wk =   0.0400000
        k(   28) = (   0.0000000   0.0000000   0.3636364), wk =   0.0400000
        k(   29) = (   0.0000000   0.0000000   0.3181818), wk =   0.0400000
        k(   30) = (   0.0000000   0.0000000   0.2727273), wk =   0.0400000
        k(   31) = (   0.0000000   0.0000000   0.2272727), wk =   0.0400000
        k(   32) = (   0.0000000   0.0000000   0.1818182), wk =   0.0400000
        k(   33) = (   0.0000000   0.0000000   0.1363636), wk =   0.0400000
        k(   34) = (   0.0000000   0.0000000   0.0909091), wk =   0.0400000
        k(   35) = (   0.0000000   0.0000000   0.0454545), wk =   0.0400000
        k(   36) = (   0.0000000   0.0000000   0.0000000), wk =   0.0400000
        k(   37) = (   0.0178571   0.0178571   0.0178571), wk =   0.0400000
        k(   38) = (   0.0357143   0.0357143   0.0357143), wk =   0.0400000
        k(   39) = (   0.0535714   0.0535714   0.0535714), wk =   0.0400000
        k(   40) = (   0.0714286   0.0714286   0.0714286), wk =   0.0400000
        k(   41) = (   0.0892857   0.0892857   0.0892857), wk =   0.0400000
        k(   42) = (   0.1071429   0.1071429   0.1071429), wk =   0.0400000
        k(   43) = (   0.1250000   0.1250000   0.1250000), wk =   0.0400000
        k(   44) = (   0.1428571   0.1428571   0.1428571), wk =   0.0400000
        k(   45) = (   0.1607143   0.1607143   0.1607143), wk =   0.0400000
        k(   46) = (   0.1785714   0.1785714   0.1785714), wk =   0.0400000
        k(   47) = (   0.1964286   0.1964286   0.1964286), wk =   0.0400000
        k(   48) = (   0.2142857   0.2142857   0.2142857), wk =   0.0400000
        k(   49) = (   0.2321429   0.2321429   0.2321429), wk =   0.0400000
        k(   50) = (   0.2500000   0.2500000   0.2500000), wk =   0.0400000

     Dense  grid:     8589 G-vectors     FFT dimensions: (  27,  27,  27)

     Smooth grid:     6099 G-vectors     FFT dimensions: (  25,  25,  25)

     Estimated max dynamical RAM per process >       8.18Mb

     The potential is recalculated from file :
     ./pwscf.save/charge-density.dat

     Starting wfc are    4 randomized atomic wfcs +    4 random wfc

     Band Structure Calculation
     Davidson diagonalization with overlap

     Computing kpt #:     1
     total cpu time spent up to now is        0.7 secs

     Computing kpt #:     2
     total cpu time spent up to now is        0.8 secs

     Computing kpt #:     3
     total cpu time spent up to now is        0.9 secs

     Computing kpt #:     4
     total cpu time spent up to now is        1.0 secs

     Computing kpt #:     5
     total cpu time spent up to now is        1.1 secs

     Computing kpt #:     6
     total cpu time spent up to now is        1.2 secs

     Computing kpt #:     7
     total cpu time spent up to now is        1.3 secs

     Computing kpt #:     8
     total cpu time spent up to now is        1.3 secs

     Computing kpt #:     9
     total cpu time spent up to now is        1.4 secs

     Computing kpt #:    10
     total cpu time spent up to now is        1.5 secs

     Computing kpt #:    11
     total cpu time spent up to now is        1.6 secs

     Computing kpt #:    12
     total cpu time spent up to now is        1.7 secs

     Computing kpt #:    13
     total cpu time spent up to now is        1.8 secs

     Computing kpt #:    14
     total cpu time spent up to now is        1.9 secs

     Computing kpt #:    15
     total cpu time spent up to now is        2.1 secs

     Computing kpt #:    16
     total cpu time spent up to now is        2.2 secs

     Computing kpt #:    17
     total cpu time spent up to now is        2.3 secs

     Computing kpt #:    18
     total cpu time spent up to now is        2.4 secs

     Computing kpt #:    19
     total cpu time spent up to now is        2.5 secs

     Computing kpt #:    20
     total cpu time spent up to now is        2.6 secs

     Computing kpt #:    21
     total cpu time spent up to now is        2.7 secs

     Computing kpt #:    22
     total cpu time spent up to now is        2.8 secs

     Computing kpt #:    23
     total cpu time spent up to now is        2.9 secs

     Computing kpt #:    24
     total cpu time spent up to now is        3.0 secs

     Computing kpt #:    25
     total cpu time spent up to now is        3.1 secs

     Computing kpt #:    26
     total cpu time spent up to now is        3.2 secs

     Computing kpt #:    27
     total cpu time spent up to now is        3.3 secs

     Computing kpt #:    28
     total cpu time spent up to now is        3.4 secs

     Computing kpt #:    29
     total cpu time spent up to now is        3.5 secs

     Computing kpt #:    30
     total cpu time spent up to now is        3.7 secs

     Computing kpt #:    31
     total cpu time spent up to now is        3.8 secs

     Computing kpt #:    32
     total cpu time spent up to now is        3.9 secs

     Computing kpt #:    33
     total cpu time spent up to now is        4.0 secs

     Computing kpt #:    34
     total cpu time spent up to now is        4.1 secs

     Computing kpt #:    35
     total cpu time spent up to now is        4.2 secs

     Computing kpt #:    36
     total cpu time spent up to now is        4.3 secs

     Computing kpt #:    37
     total cpu time spent up to now is        4.4 secs

     Computing kpt #:    38
     total cpu time spent up to now is        4.5 secs

     Computing kpt #:    39
     total cpu time spent up to now is        4.6 secs

     Computing kpt #:    40
     total cpu time spent up to now is        4.8 secs

     Computing kpt #:    41
     total cpu time spent up to now is        4.9 secs

     Computing kpt #:    42
     total cpu time spent up to now is        5.0 secs

     Computing kpt #:    43
     total cpu time spent up to now is        5.1 secs

     Computing kpt #:    44
     total cpu time spent up to now is        5.2 secs

     Computing kpt #:    45
     total cpu time spent up to now is        5.3 secs

     Computing kpt #:    46
     total cpu time spent up to now is        5.4 secs

     Computing kpt #:    47
     total cpu time spent up to now is        5.5 secs

     Computing kpt #:    48
     total cpu time spent up to now is        5.6 secs

     Computing kpt #:    49
     total cpu time spent up to now is        5.7 secs

     Computing kpt #:    50
     total cpu time spent up to now is        5.8 secs

     ethr =  1.43E-09,  avg # of iterations = 16.1

     total cpu time spent up to now is        5.8 secs

     End of band structure calculation

          k = 0.0000 0.0000 0.0000 (   767 PWs)   bands (ev):

   -11.3839   4.6527   4.6527   4.6527  11.7369  16.6593  16.6593  16.6593

          k = 0.0000 0.0619 0.0000 (   771 PWs)   bands (ev):

   -11.3555   4.5012   4.6051   4.6051  11.9264  16.6030  16.6030  16.7095

          k = 0.0000 0.1237 0.0000 (   759 PWs)   bands (ev):

   -11.2714   4.1005   4.4655   4.4655  12.4340  16.4835  16.4835  16.8600

          k = 0.0000 0.1856 0.0000 (   751 PWs)   bands (ev):

   -11.1350   3.5608   4.2432   4.2432  13.1281  16.3948  16.3948  16.5978

          k = 0.0000 0.2474 0.0000 (   763 PWs)   bands (ev):

   -10.9522   2.9797   3.9535   3.9535  13.8786  15.5549  16.4079  16.4079

          k = 0.0000 0.3093 0.0000 (   763 PWs)   bands (ev):

   -10.7311   2.4242   3.6159   3.6159  14.5738  14.5932  16.5590  16.5590

          k = 0.0000 0.3712 0.0000 (   759 PWs)   bands (ev):

   -10.4827   1.9376   3.2522   3.2522  13.7234  15.0953  16.8605  16.8605

          k = 0.0000 0.4330 0.0000 (   771 PWs)   bands (ev):

   -10.2204   1.5481   2.8838   2.8838  12.9508  15.2706  17.3124  17.3124

          k = 0.0000 0.4949 0.0000 (   767 PWs)   bands (ev):

    -9.9592   1.2732   2.5296   2.5296  12.2781  14.9142  17.9092  17.9092

          k = 0.0000 0.5567 0.0000 (   771 PWs)   bands (ev):

    -9.7144   1.1201   2.2059   2.2059  11.7071  14.0736  18.6433  18.6433

          k = 0.0000 0.6186 0.0000 (   771 PWs)   bands (ev):

    -9.5001   1.0831   1.9255   1.9255  11.2388  13.0237  19.5073  19.5073

          k = 0.0000 0.6804 0.0000 (   763 PWs)   bands (ev):

    -9.3268   1.1400   1.6981   1.6981  10.8740  12.0015  20.4936  20.4936

          k = 0.0000 0.7423 0.0000 (   764 PWs)   bands (ev):

    -9.2010   1.2488   1.5310   1.5310  10.6132  11.1579  21.5944  21.5944

          k = 0.0000 0.8042 0.0000 (   772 PWs)   bands (ev):

    -9.1253   1.3521   1.4289   1.4289  10.4565  10.6001  22.7957  22.7957

          k = 0.0000 0.8660 0.0000 (   784 PWs)   bands (ev):

    -9.1001   1.3945   1.3945   1.3945  10.4043  10.4043  23.8436  23.8436

          k = 0.0433 0.8227 0.0000 (   766 PWs)   bands (ev):

    -9.1244   1.3280   1.4281   1.4521  10.4909  10.5615  22.6642  22.6928

          k = 0.0866 0.7794 0.0000 (   770 PWs)   bands (ev):

    -9.1943   1.1443   1.5275   1.6212  10.7452  11.0167  21.1843  21.1915

          k = 0.1299 0.7361 0.0000 (   770 PWs)   bands (ev):

    -9.3001   0.8813   1.6882   1.8912  11.1482  11.7301  19.7036  19.7536

          k = 0.1732 0.6928 0.0000 (   778 PWs)   bands (ev):

    -9.4287   0.5817   1.9021   2.2461  11.6554  12.6555  18.2982  18.4697

          k = 0.2165 0.6495 0.0000 (   774 PWs)   bands (ev):

    -9.5656   0.2822   2.1565   2.6653  12.1655  13.7510  17.0151  17.4628

          k = 0.2598 0.6062 0.0000 (   770 PWs)   bands (ev):

    -9.6972   0.0094   2.4326   3.1223  12.4721  14.9813  15.8865  16.9617

          k = 0.3031 0.5629 0.0000 (   772 PWs)   bands (ev):

    -9.8118  -0.2179   2.7048   3.5811  12.3758  14.9459  16.3141  17.1913

          k = 0.3464 0.5196 0.0000 (   766 PWs)   bands (ev):

    -9.9001  -0.3877   2.9399   3.9911  12.0055  14.2307  17.7118  18.0578

          k = 0.3897 0.4763 0.0000 (   768 PWs)   bands (ev):

    -9.9557  -0.4923   3.1017   4.2847  11.6550  13.7800  19.0973  19.3073

          k = 0.4330 0.4330 0.0000 (   758 PWs)   bands (ev):

    -9.9746  -0.5276   3.1596   4.3930  11.5168  13.6256  19.9843  20.5051

          k = 0.3936 0.3936 0.0000 (   766 PWs)   bands (ev):

   -10.0113  -0.4394   3.1842   4.3986  11.5691  13.6636  19.5768  20.6983

          k = 0.3543 0.3543 0.0000 (   778 PWs)   bands (ev):

   -10.1154  -0.1820   3.2570   4.4147  11.7242  13.7770  18.9214  20.1223

          k = 0.3149 0.3149 0.0000 (   778 PWs)   bands (ev):

   -10.2717   0.2260   3.3748   4.4400  11.9755  13.9643  18.2150  19.6473

          k = 0.2756 0.2756 0.0000 (   780 PWs)   bands (ev):

   -10.4606   0.7582   3.5321   4.4721  12.3068  14.2228  17.4933  19.2836

          k = 0.2362 0.2362 0.0000 (   780 PWs)   bands (ev):

   -10.6618   1.3843   3.7207   4.5082  12.6791  14.5475  16.7925  19.0347

          k = 0.1968 0.1968 0.0000 (   770 PWs)   bands (ev):

   -10.8580   2.0715   3.9291   4.5452  12.9953  14.9302  16.2076  18.9005

          k = 0.1575 0.1575 0.0000 (   766 PWs)   bands (ev):

   -11.0351   2.7826   4.1421   4.5802  13.0604  15.3566  15.9374  18.4328

          k = 0.1181 0.1181 0.0000 (   752 PWs)   bands (ev):

   -11.1826   3.4706   4.3412   4.6103  12.7590  15.8016  16.0867  17.6823

          k = 0.0787 0.0787 0.0000 (   766 PWs)   bands (ev):

   -11.2928   4.0710   4.5055   4.6333  12.2853  16.2201  16.4031  17.1231

          k = 0.0394 0.0394 0.0000 (   769 PWs)   bands (ev):

   -11.3609   4.4962   4.6145   4.6478  11.8896  16.5373  16.6048  16.7768

          k = 0.0000 0.0000 0.0000 (   767 PWs)   bands (ev):

   -11.3839   4.6527   4.6527   4.6527  11.7369  16.6593  16.6593  16.6593

          k = 0.0309 0.0309 0.0309 (   767 PWs)   bands (ev):

   -11.3626   4.4981   4.6376   4.6376  11.8783  16.5645  16.5645  16.7929

          k = 0.0619 0.0619 0.0619 (   764 PWs)   bands (ev):

   -11.2996   4.0824   4.5903   4.5903  12.2494  16.2800  16.2800  17.1980

          k = 0.0928 0.0928 0.0928 (   746 PWs)   bands (ev):

   -11.1973   3.5077   4.5062   4.5062  12.7425  15.8577  15.8577  17.8789

          k = 0.1237 0.1237 0.1237 (   757 PWs)   bands (ev):

   -11.0604   2.8683   4.3790   4.3790  13.2733  15.4080  15.4080  18.8218

          k = 0.1546 0.1546 0.1546 (   760 PWs)   bands (ev):

   -10.8952   2.2321   4.2029   4.2029  13.8058  15.0239  15.0239  19.0936

          k = 0.1856 0.1856 0.1856 (   772 PWs)   bands (ev):

   -10.7103   1.6461   3.9758   3.9758  14.3361  14.7566  14.7566  19.4023

          k = 0.2165 0.2165 0.2165 (   784 PWs)   bands (ev):

   -10.5166   1.1441   3.7005   3.7005  14.6271  14.6271  14.8696  19.7810

          k = 0.2474 0.2474 0.2474 (   772 PWs)   bands (ev):

   -10.3263   0.7525   3.3856   3.3856  14.6367  14.6367  15.4076  20.2103

          k = 0.2784 0.2784 0.2784 (   772 PWs)   bands (ev):

   -10.1526   0.4923   3.0439   3.0439  14.7744  14.7744  15.9403  20.6681

          k = 0.3093 0.3093 0.3093 (   775 PWs)   bands (ev):

   -10.0071   0.3788   2.6899   2.6899  15.0209  15.0209  16.4400  21.1240

          k = 0.3402 0.3402 0.3402 (   772 PWs)   bands (ev):

    -9.8978   0.4203   2.3383   2.3383  15.3504  15.3504  16.8495  21.5373

          k = 0.3712 0.3712 0.3712 (   778 PWs)   bands (ev):

    -9.8270   0.6159   2.0019   2.0019  15.7316  15.7316  17.0680  21.8624

          k = 0.4021 0.4021 0.4021 (   772 PWs)   bands (ev):

    -9.7911   0.9548   1.6916   1.6916  16.1257  16.1257  16.9663  22.0668

          k = 0.4330 0.4330 0.4330 (   784 PWs)   bands (ev):

    -9.7815   1.4158   1.4158   1.4158  16.4854  16.4854  16.4854  22.1378

     Writing output data file pwscf.save

     init_run     :      0.56s CPU      0.45s WALL (       1 calls)
     electrons    :     10.33s CPU      5.20s WALL (       1 calls)

     Called by init_run:
     wfcinit      :      0.00s CPU      0.00s WALL (       1 calls)
     wfcinit:atom :      0.02s CPU      0.01s WALL (      50 calls)
     wfcinit:wfcr :      0.58s CPU      0.32s WALL (      50 calls)
     potinit      :      0.02s CPU      0.02s WALL (       1 calls)

     Called by electrons:
     c_bands      :     10.33s CPU      5.20s WALL (       1 calls)
     v_of_rho     :      0.02s CPU      0.02s WALL (       1 calls)
     v_h          :      0.00s CPU      0.00s WALL (       1 calls)
     v_xc         :      0.02s CPU      0.02s WALL (       1 calls)
     newd         :      0.03s CPU      0.05s WALL (       1 calls)

     Called by c_bands:
     init_us_2    :      0.00s CPU      0.03s WALL (      50 calls)
     cegterg      :      9.56s CPU      4.69s WALL (      55 calls)

     Called by sum_band:

     Called by *egterg:
     h_psi        :      6.58s CPU      3.32s WALL (     911 calls)
     s_psi        :      0.17s CPU      0.11s WALL (     911 calls)
     g_psi        :      0.05s CPU      0.04s WALL (     806 calls)
     cdiaghg      :      1.80s CPU      0.83s WALL (     856 calls)
     cegterg:over :      0.55s CPU      0.24s WALL (     806 calls)
     cegterg:upda :      0.64s CPU      0.20s WALL (     806 calls)
     cegterg:last :      0.06s CPU      0.13s WALL (     196 calls)

     Called by h_psi:
     h_psi:pot    :      6.52s CPU      3.28s WALL (     911 calls)
     h_psi:calbec :      0.34s CPU      0.14s WALL (     911 calls)
     vloc_psi     :      5.98s CPU      3.00s WALL (     911 calls)
     add_vuspsi   :      0.12s CPU      0.12s WALL (     911 calls)

     General routines
     calbec       :      0.34s CPU      0.13s WALL (     911 calls)
     fft          :      0.02s CPU      0.01s WALL (      13 calls)
     ffts         :      0.00s CPU      0.00s WALL (       1 calls)
     fftw         :      5.17s CPU      2.56s WALL (    9342 calls)
     interpolate  :      0.00s CPU      0.00s WALL (       1 calls)
     davcio       :      0.00s CPU      0.00s WALL (      50 calls)

     Parallel routines
     fft_scatter  :      0.20s CPU      0.25s WALL (    9356 calls)

     PWSCF        :    11.25s CPU         6.10s WALL


   This run was terminated on:  16:12:38  25Feb2021            

=------------------------------------------------------------------------------=
   JOB DONE.
=------------------------------------------------------------------------------=
