element =  I
struct =  bcc
nbands =  -4
path =  GHNGP
kpts =  (8,8,8)
lattice constant a =  4.154
lattice constant b =  4.154
lattice constant c =  4.154
alpha angle =  90.0

  ___ ___ ___ _ _ _  
 |   |   |_  | | | | 
 | | | | | . | | | | 
 |__ |  _|___|_____|  1.3.1b1
 |___|_|             

User:   inukai@DESKTOP-12SE80T
Date:   Fri Feb 12 02:50:12 2021
Arch:   x86_64
Pid:    18006
Python: 3.6.9
gpaw:   /usr/lib/python3/dist-packages/gpaw
_gpaw:  /usr/lib/python3/dist-packages/_gpaw.cpython-36m-x86_64-linux-gnu.so
ase:    /home/inukai/hotcent/ase-3.19.3/ase (version 3.19.3)
numpy:  /home/inukai/.local/lib/python3.6/site-packages/numpy (version 1.19.5)
scipy:  /home/inukai/.local/lib/python3.6/site-packages/scipy (version 1.5.4)
units:  Angstrom and eV
cores:  1

Input parameters:
  kpts: [8 8 8]
  maxiter: 1500
  mixer: {backend: pulay,
          beta: 0.01,
          method: separate,
          nmaxold: 11,
          weight: 100.0}
  mode: {ecut: 400.0,
         name: pw}
  occupations: {name: fermi-dirac,
                width: 0.02}
  spinpol: True
  xc: PBE

System changes: positions, numbers, cell, pbc, initial_charges, initial_magmoms 

Initialize ...

I-setup:
  name: Iodine
  id: 91405a398e4dfe788ff04f57531604ec
  Z: 53
  valence: 7
  core: 46
  charge: 0.0
  file: /usr/share/gpaw-setups/I.PBE.gz
  cutoffs: 1.16(comp), 2.06(filt), 2.90(core), lmax=2
  valence states:
                energy  radius
    5s(2.00)   -17.382   1.164
    5p(5.00)    -7.088   1.164
    *s           9.829   1.164
    *p          20.123   1.164
    *d           0.000   1.164

  Using partial waves for I as LCAO basis

Reference energy: -193540.795666

Spin-polarized calculation.
Magnetic moment:  0.000000

Occupation numbers:
  Fermi-Dirac: width=0.0200 eV

Convergence criteria:
  Maximum total energy change: 0.0005 eV / electron
  Maximum integral of absolute density change: 0.0001 electrons
  Maximum integral of absolute eigenstate change: 4e-08 eV^2
  Maximum number of iterations: 1500

Symmetries present (total): 48

  ( 1  1  1)  ( 1  1  1)  ( 1  1  1)  ( 1  1  1)  ( 1  1  1)  ( 1  1  1)
  ( 0  0 -1)  ( 0  0 -1)  ( 0 -1  0)  ( 0 -1  0)  (-1  0  0)  (-1  0  0)
  ( 0 -1  0)  (-1  0  0)  ( 0  0 -1)  (-1  0  0)  ( 0  0 -1)  ( 0 -1  0)

  ( 1  0  0)  ( 1  0  0)  ( 1  0  0)  ( 1  0  0)  ( 1  0  0)  ( 1  0  0)
  ( 0  1  0)  ( 0  1  0)  ( 0  0  1)  ( 0  0  1)  (-1 -1 -1)  (-1 -1 -1)
  ( 0  0  1)  (-1 -1 -1)  ( 0  1  0)  (-1 -1 -1)  ( 0  1  0)  ( 0  0  1)

  ( 0  1  0)  ( 0  1  0)  ( 0  1  0)  ( 0  1  0)  ( 0  1  0)  ( 0  1  0)
  ( 1  0  0)  ( 1  0  0)  ( 0  0  1)  ( 0  0  1)  (-1 -1 -1)  (-1 -1 -1)
  ( 0  0  1)  (-1 -1 -1)  ( 1  0  0)  (-1 -1 -1)  ( 1  0  0)  ( 0  0  1)

  ( 0  0  1)  ( 0  0  1)  ( 0  0  1)  ( 0  0  1)  ( 0  0  1)  ( 0  0  1)
  ( 1  0  0)  ( 1  0  0)  ( 0  1  0)  ( 0  1  0)  (-1 -1 -1)  (-1 -1 -1)
  ( 0  1  0)  (-1 -1 -1)  ( 1  0  0)  (-1 -1 -1)  ( 1  0  0)  ( 0  1  0)

  ( 0  0 -1)  ( 0  0 -1)  ( 0  0 -1)  ( 0  0 -1)  ( 0  0 -1)  ( 0  0 -1)
  ( 1  1  1)  ( 1  1  1)  ( 0 -1  0)  ( 0 -1  0)  (-1  0  0)  (-1  0  0)
  ( 0 -1  0)  (-1  0  0)  ( 1  1  1)  (-1  0  0)  ( 1  1  1)  ( 0 -1  0)

  ( 0 -1  0)  ( 0 -1  0)  ( 0 -1  0)  ( 0 -1  0)  ( 0 -1  0)  ( 0 -1  0)
  ( 1  1  1)  ( 1  1  1)  ( 0  0 -1)  ( 0  0 -1)  (-1  0  0)  (-1  0  0)
  ( 0  0 -1)  (-1  0  0)  ( 1  1  1)  (-1  0  0)  ( 1  1  1)  ( 0  0 -1)

  (-1  0  0)  (-1  0  0)  (-1  0  0)  (-1  0  0)  (-1  0  0)  (-1  0  0)
  ( 1  1  1)  ( 1  1  1)  ( 0  0 -1)  ( 0  0 -1)  ( 0 -1  0)  ( 0 -1  0)
  ( 0  0 -1)  ( 0 -1  0)  ( 1  1  1)  ( 0 -1  0)  ( 1  1  1)  ( 0  0 -1)

  (-1 -1 -1)  (-1 -1 -1)  (-1 -1 -1)  (-1 -1 -1)  (-1 -1 -1)  (-1 -1 -1)
  ( 1  0  0)  ( 1  0  0)  ( 0  1  0)  ( 0  1  0)  ( 0  0  1)  ( 0  0  1)
  ( 0  1  0)  ( 0  0  1)  ( 1  0  0)  ( 0  0  1)  ( 1  0  0)  ( 0  1  0)

512 k-points: 8 x 8 x 8 Monkhorst-Pack grid
26 k-points in the irreducible part of the Brillouin zone
       k-points in crystal coordinates                weights
   0:     0.06250000    0.06250000   -0.06250000          6/512
   1:     0.18750000   -0.06250000   -0.06250000          8/512
   2:     0.18750000    0.06250000   -0.06250000         24/512
   3:     0.18750000    0.18750000   -0.18750000          6/512
   4:     0.31250000   -0.06250000   -0.06250000         24/512
   5:     0.31250000    0.06250000   -0.18750000         24/512
   6:     0.31250000    0.06250000   -0.06250000         24/512
   7:     0.31250000    0.18750000   -0.18750000         24/512
   8:     0.31250000    0.31250000   -0.31250000          6/512
   9:     0.31250000    0.31250000    0.18750000         12/512
          ...
  25:     0.43750000    0.43750000    0.43750000          8/512

Wave functions: Plane wave expansion
  Cutoff energy: 400.000 eV
  Number of coefficients (min, max): 643, 664
  Using FFTW library
  Eigensolver: None  MatrixOperator buffer_size: default value or 
                              see value of nblock in input file
Diagonalizer layout: Serial LAPACKOrthonormalizer layout: Serial LAPACK 

Davidson(niter=1, smin=None, normalize=True) 

Densities:
  Coarse grid: 14*14*14 grid
  Fine grid: 28*28*28 grid
  Total Charge: 0.000000 

Density mixing:
  Method: separate
  Backend: pulay
  Linear mixing parameter: 0.01
  Mixing with 11 old densities
  Damping of long wave oscillations: 100 

Hamiltonian:
  XC and Coulomb potentials evaluated on a 28*28*28 grid
  Using the PBE Exchange-Correlation functional
 

Memory estimate:
  Process memory now: 927.55 MiB
  Calculator: 7.01 MiB
    Density: 2.06 MiB
      Arrays: 0.73 MiB
      Localized functions: 0.41 MiB
      Mixer: 0.92 MiB
    Hamiltonian: 0.55 MiB
      Arrays: 0.54 MiB
      XC: 0.00 MiB
      Poisson: 0.00 MiB
      vbar: 0.01 MiB
    Wavefunctions: 4.39 MiB
      Arrays psit_nG: 2.11 MiB
      Eigensolver: 0.09 MiB
      Projections: 0.04 MiB
      Projectors: 1.81 MiB
      Overlap op: 0.04 MiB
      PW-descriptor: 0.30 MiB

Total number of cores used: 1

Number of atoms: 1
Number of atomic orbitals: 4
Number of bands in calculation: 4
Bands to converge: occupied states only
Number of valence electrons: 7

... initialized

Initializing position-dependent things.

Density initialized from atomic densities
Creating initial wave functions:
  4 bands from LCAO basis set

                
                
                
       I        
                
                
                
                

Positions:
   0 I      0.000000    0.000000    0.000000

Unit cell:
           periodic     x           y           z      points  spacing
  1. axis:    yes   -2.077000    2.077000    2.077000    14     0.2098
  2. axis:    yes    2.077000   -2.077000    2.077000    14     0.2098
  3. axis:    yes    2.077000    2.077000   -2.077000    14     0.2098

  Lengths:   3.597470   3.597470   3.597470
  Angles:  109.471221 109.471221 109.471221

Effective grid spacing dv^(1/3) = 0.2355

                     log10-error:    total        iterations:
           time      wfs    density  energy       fermi  poisson  magmom
iter:   1  02:50:14  -0.05   +inf    -1.004227    3               +0.0000
iter:   2  02:50:14  -0.93   +inf    -1.024492    3               +0.0000
iter:   3  02:50:15  -2.00   +inf    -1.027096    2               -0.0000
iter:   4  02:50:15  -2.63  -1.74    -1.027536    2               +0.0000
iter:   5  02:50:16  -3.39  -1.73    -1.027695    3               -0.0000
iter:   6  02:50:17  -2.45  -1.71    -1.026943    5               +0.0000
iter:   7  02:50:18  -2.74  -2.23    -1.027746    4               +0.0000
iter:   8  02:50:19  -3.62  -2.26    -1.027727    3               -0.0000
iter:   9  02:50:20  -3.66  -2.30    -1.028295    3               -0.0000
iter:  10  02:50:20  -3.58  -2.09    -1.027640    4               -0.0000
iter:  11  02:50:21  -3.57  -2.33    -1.027370    4               +0.0000
iter:  12  02:50:22  -3.57  -2.92    -1.027446    4               -0.0000
iter:  13  02:50:23  -4.07  -2.55    -1.027370    3               -0.0000
iter:  14  02:50:24  -3.25  -2.83    -1.027658    3               -0.0000
iter:  15  02:50:25  -3.37  -2.33    -1.027355    4               -0.0000
iter:  16  02:50:26  -4.27  -3.55    -1.027368    3               +0.0002
iter:  17  02:50:26  -5.22  -3.07    -1.027364    2               -0.0000
iter:  18  02:50:27  -5.97  -3.12    -1.027361    2               +0.0000
iter:  19  02:50:28  -5.83  -3.20    -1.027358    3               -0.0001
iter:  20  02:50:29  -5.49  -3.23    -1.027361    2               +0.0003
iter:  21  02:50:30  -6.32  -3.72    -1.027361    2               +0.0002
iter:  22  02:50:31  -6.54  -3.82    -1.027361    2               +0.0001
iter:  23  02:50:31  -6.48  -3.61    -1.027362    2               +0.0002
iter:  24  02:50:32  -6.74  -3.58    -1.027362    2               +0.0002
iter:  25  02:50:33  -4.99  -3.48    -1.027364    3               -0.0001
iter:  26  02:50:34  -5.57  -3.35    -1.027367    2               -0.0004
iter:  27  02:50:35  -5.13  -3.21    -1.027361    3               +0.0003
iter:  28  02:50:36  -6.11  -3.95    -1.027361    2               +0.0005
iter:  29  02:50:36  -6.60  -4.00    -1.027362    2               +0.0002
iter:  30  02:50:37  -6.64  -3.93    -1.027362    2               +0.0001
iter:  31  02:50:38  -6.72  -3.82    -1.027362    2               -0.0002
iter:  32  02:50:39  -7.03  -3.70    -1.027362    2               -0.0001
iter:  33  02:50:40  -5.78  -3.60    -1.027361    3               +0.0004
iter:  34  02:50:41  -6.36  -3.82    -1.027361    2               +0.0001
iter:  35  02:50:41  -6.52  -4.21    -1.027361    2               +0.0001
iter:  36  02:50:42  -5.85  -3.79    -1.027362    3               +0.0002
iter:  37  02:50:43  -5.97  -3.69    -1.027361    3               +0.0002
iter:  38  02:50:44  -6.75  -4.16    -1.027361    2               +0.0002
iter:  39  02:50:45  -6.58  -4.18    -1.027361    2               +0.0001
iter:  40  02:50:46  -6.93  -4.19    -1.027361    2               -0.0001
iter:  41  02:50:46  -7.79  -4.25    -1.027361    2               -0.0002

Converged after 41 iterations.

Dipole moment: (0.000000, -0.000000, 0.000000) |e|*Ang

Total magnetic moment: -0.000158
Local magnetic moments:
   0 I  -0.000238

Energy contributions relative to reference atoms: (reference = -193540.795666)

Kinetic:         -0.068657
Potential:       +0.358685
External:        +0.000000
XC:              -1.308552
Entropy (-ST):   -0.005044
Local:           -0.006315
--------------------------
Free energy:     -1.029883
Extrapolated:    -1.027361

Spin contamination: 0.000234 electrons
Fermi level: 4.28952

Warning: Showing only first 2 kpts
                      Up                     Down
 Kpt  Band  Eigenvalues  Occupancy  Eigenvalues  Occupancy
  0     1      4.58134    0.00000      4.58125    0.00000
  0     2      4.85915    0.00000      4.85903    0.00000
  0     3      4.85949    0.00000      4.85937    0.00000

  1     1      3.52723    0.01562      3.52718    0.01562
  1     2      4.78433    0.00000      4.78422    0.00000
  1     3      4.78477    0.00000      4.78466    0.00000


Input parameters:
  convergence: {bands: all}
  eigensolver: {name: cg,
                niter: 5}
  fixdensity: True
  kpts: {npoints: 50,
         path: GHNGP}
  nbands: -4
  symmetry: off

Initialize ...

I-setup:
  name: Iodine
  id: 91405a398e4dfe788ff04f57531604ec
  Z: 53
  valence: 7
  core: 46
  charge: 0.0
  file: /usr/share/gpaw-setups/I.PBE.gz
  cutoffs: 1.16(comp), 2.06(filt), 2.90(core), lmax=2
  valence states:
                energy  radius
    5s(2.00)   -17.382   1.164
    5p(5.00)    -7.088   1.164
    *s           9.829   1.164
    *p          20.123   1.164
    *d           0.000   1.164

  Using partial waves for I as LCAO basis

Reference energy: -193540.795666

Spin-polarized calculation.
Magnetic moment:  0.000000

Occupation numbers:
  Fixed Fermi level
  Fermi-Dirac: width=0.0200 eV

Convergence criteria:
  Maximum total energy change: 0.0005 eV / electron
  Maximum integral of absolute density change: 0.0001 electrons
  Maximum integral of absolute eigenstate change: 4e-08 eV^2
  Maximum number of iterations: 1500

Symmetries present (total): 1

  ( 1  0  0)
  ( 0  1  0)
  ( 0  0  1)

50 k-points
50 k-points in the irreducible part of the Brillouin zone
       k-points in crystal coordinates                weights
   0:     0.00000000    0.00000000    0.00000000          1/50
   1:     0.03571429   -0.03571429    0.03571429          1/50
   2:     0.07142857   -0.07142857    0.07142857          1/50
   3:     0.10714286   -0.10714286    0.10714286          1/50
   4:     0.14285714   -0.14285714    0.14285714          1/50
   5:     0.17857143   -0.17857143    0.17857143          1/50
   6:     0.21428571   -0.21428571    0.21428571          1/50
   7:     0.25000000   -0.25000000    0.25000000          1/50
   8:     0.28571429   -0.28571429    0.28571429          1/50
   9:     0.32142857   -0.32142857    0.32142857          1/50
          ...
  49:     0.25000000    0.25000000    0.25000000          1/50

Wave functions: Plane wave expansion
  Cutoff energy: 400.000 eV
  Number of coefficients (min, max): 627, 682
  Using FFTW library
  Eigensolver: None  MatrixOperator buffer_size: default value or 
                              see value of nblock in input file
Diagonalizer layout: Serial LAPACKOrthonormalizer layout: Serial LAPACK 

CG(niter=5, rtol=3.0e-01) 

No density mixing

Memory estimate:
  Process memory now: 990.27 MiB
  Calculator: 14.20 MiB
    Density: 2.06 MiB
      Arrays: 0.73 MiB
      Localized functions: 0.41 MiB
      Mixer: 0.92 MiB
    Hamiltonian: 0.55 MiB
      Arrays: 0.54 MiB
      XC: 0.00 MiB
      Poisson: 0.00 MiB
      vbar: 0.01 MiB
    Wavefunctions: 11.58 MiB
      Arrays psit_nG: 7.28 MiB
      Eigensolver: 0.12 MiB
      Projections: 0.14 MiB
      Projectors: 3.48 MiB
      Overlap op: 0.07 MiB
      PW-descriptor: 0.48 MiB

Total number of cores used: 1

Number of atoms: 1
Number of atomic orbitals: 4
Number of bands in calculation: 7
Bands to converge: all
Number of valence electrons: 7

... initialized

Initializing position-dependent things.

Creating initial wave functions:
  4 bands from LCAO basis set
  3 bands from random numbers

                
                
                
       I        
                
                
                
                

Positions:
   0 I      0.000000    0.000000    0.000000

Unit cell:
           periodic     x           y           z      points  spacing
  1. axis:    yes   -2.077000    2.077000    2.077000    14     0.2098
  2. axis:    yes    2.077000   -2.077000    2.077000    14     0.2098
  3. axis:    yes    2.077000    2.077000   -2.077000    14     0.2098

  Lengths:   3.597470   3.597470   3.597470
  Angles:  109.471221 109.471221 109.471221

Effective grid spacing dv^(1/3) = 0.2355

                     log10-error:    total        iterations:
           time      wfs    density  energy       fermi  poisson  magmom
iter:   1  02:50:54  +3.85            0.862394    31              +0.0004
iter:   2  02:50:57  +2.81            0.794624    33              -0.0002
iter:   3  02:51:00  +1.85            0.787588    32              -0.0001
iter:   4  02:51:04  +0.99            0.786916    32              -0.0002
iter:   5  02:51:07  +0.12            0.786844    30              -0.0002
iter:   6  02:51:11  -0.64            0.786832    31              -0.0002
iter:   7  02:51:14  -1.23            0.786829    30              -0.0002
iter:   8  02:51:18  -1.58            0.786829    33              -0.0002
iter:   9  02:51:21  -1.96            0.786829    32              -0.0002
iter:  10  02:51:24  -2.63            0.786829    33              -0.0002
iter:  11  02:51:27  -3.11            0.786829    29              -0.0002
iter:  12  02:51:29  -2.83            0.786829    32              -0.0002
iter:  13  02:51:31  -3.19            0.786829    33              -0.0002
iter:  14  02:51:33  -3.65            0.786829    33              -0.0002
iter:  15  02:51:34  -2.88            0.786829    33              -0.0002
iter:  16  02:51:36  -3.81            0.786829    33              -0.0002
iter:  17  02:51:37  -3.32            0.786829    33              -0.0002
iter:  18  02:51:38  -3.60            0.786829    33              -0.0002
iter:  19  02:51:39  -3.64            0.786829    33              -0.0002
iter:  20  02:51:41  -3.47            0.786829    33              -0.0002
iter:  21  02:51:42  -3.50            0.786829    33              -0.0002
iter:  22  02:51:43  -3.90            0.786829    33              -0.0002
iter:  23  02:51:44  -4.09            0.786829    33              -0.0002
iter:  24  02:51:45  -3.86            0.786829    33              -0.0002
iter:  25  02:51:46  -4.22            0.786829    33              -0.0002
iter:  26  02:51:48  -3.34            0.786829    33              -0.0002
iter:  27  02:51:49  -3.95            0.786829    33              -0.0002
iter:  28  02:51:50  -3.79            0.786829    33              -0.0002
iter:  29  02:51:51  -4.00            0.786829    33              -0.0002
iter:  30  02:51:52  -3.67            0.786829    33              -0.0002
iter:  31  02:51:53  -4.37            0.786829    33              -0.0002
iter:  32  02:51:54  -3.87            0.786829    33              -0.0002
iter:  33  02:51:55  -4.61            0.786829    33              -0.0002
iter:  34  02:51:56  -4.26            0.786829    33              -0.0002
iter:  35  02:51:57  -4.26            0.786829    33              -0.0002
iter:  36  02:51:58  -3.48            0.786829    33              -0.0002
iter:  37  02:52:00  -4.45            0.786829    33              -0.0002
iter:  38  02:52:01  -4.26            0.786829    33              -0.0002
iter:  39  02:52:02  -4.22            0.786829    33              -0.0002
iter:  40  02:52:03  -4.38            0.786829    33              -0.0002
iter:  41  02:52:04  -4.57            0.786829    33              -0.0002
iter:  42  02:52:05  -4.05            0.786829    33              -0.0002
iter:  43  02:52:06  -4.47            0.786829    33              -0.0002
iter:  44  02:52:07  -4.36            0.786829    33              -0.0002
iter:  45  02:52:08  -4.59            0.786829    33              -0.0002
iter:  46  02:52:09  -4.23            0.786829    33              -0.0002
iter:  47  02:52:10  -5.17            0.786829    33              -0.0002
iter:  48  02:52:11  -4.30            0.786829    33              -0.0002
iter:  49  02:52:12  -5.16            0.786829    33              -0.0002
iter:  50  02:52:13  -5.13            0.786829    33              -0.0002
iter:  51  02:52:14  -4.88            0.786829    33              -0.0002
iter:  52  02:52:15  -4.51            0.786829    33              -0.0002
iter:  53  02:52:16  -5.07            0.786829    33              -0.0002
iter:  54  02:52:17  -5.02            0.786829    33              -0.0002
iter:  55  02:52:18  -5.02            0.786829    33              -0.0002
iter:  56  02:52:19  -4.80            0.786829    33              -0.0002
iter:  57  02:52:20  -4.87            0.786829    33              -0.0002
iter:  58  02:52:21  -5.04            0.786829    33              -0.0002
iter:  59  02:52:23  -4.83            0.786829    33              -0.0002
iter:  60  02:52:24  -4.57            0.786829    33              -0.0002
iter:  61  02:52:25  -5.21            0.786829    33              -0.0002
iter:  62  02:52:26  -5.29            0.786829    33              -0.0002
iter:  63  02:52:27  -5.07            0.786829    33              -0.0002
iter:  64  02:52:28  -5.14            0.786829    33              -0.0002
iter:  65  02:52:29  -4.91            0.786829    33              -0.0002
iter:  66  02:52:30  -4.51            0.786829    33              -0.0002
iter:  67  02:52:31  -5.17            0.786829    33              -0.0002
iter:  68  02:52:32  -4.49            0.786829    33              -0.0002
iter:  69  02:52:33  -5.02            0.786829    33              -0.0002
iter:  70  02:52:34  -5.25            0.786829    33              -0.0002
iter:  71  02:52:35  -5.33            0.786829    33              -0.0002
iter:  72  02:52:36  -5.48            0.786829    33              -0.0002
iter:  73  02:52:37  -4.84            0.786829    33              -0.0002
iter:  74  02:52:38  -5.38            0.786829    33              -0.0002
iter:  75  02:52:39  -5.26            0.786829    33              -0.0002
iter:  76  02:52:40  -4.92            0.786829    33              -0.0002
iter:  77  02:52:41  -5.14            0.786829    33              -0.0002
iter:  78  02:52:42  -5.36            0.786829    33              -0.0002
iter:  79  02:52:43  -5.42            0.786829    33              -0.0002
iter:  80  02:52:44  -5.37            0.786829    33              -0.0002
iter:  81  02:52:45  -5.43            0.786829    33              -0.0002
iter:  82  02:52:46  -5.61            0.786829    33              -0.0002
iter:  83  02:52:47  -5.45            0.786829    33              -0.0002
iter:  84  02:52:48  -5.48            0.786829    33              -0.0002
iter:  85  02:52:49  -5.20            0.786829    33              -0.0002
iter:  86  02:52:50  -5.25            0.786829    33              -0.0002
iter:  87  02:52:51  -5.66            0.786829    33              -0.0002
iter:  88  02:52:52  -5.49            0.786829    33              -0.0002
iter:  89  02:52:53  -5.41            0.786829    33              -0.0002
iter:  90  02:52:54  -5.01            0.786829    33              -0.0002
iter:  91  02:52:55  -5.64            0.786829    33              -0.0002
iter:  92  02:52:56  -5.41            0.786829    33              -0.0002
iter:  93  02:52:57  -4.94            0.786829    33              -0.0002
iter:  94  02:52:58  -5.73            0.786829    33              -0.0002
iter:  95  02:52:59  -5.43            0.786829    33              -0.0002
iter:  96  02:53:00  -5.08            0.786829    33              -0.0002
iter:  97  02:53:01  -5.77            0.786829    33              -0.0002
iter:  98  02:53:02  -5.44            0.786829    33              -0.0002
iter:  99  02:53:03  -5.19            0.786829    33              -0.0002
iter: 100  02:53:04  -5.91            0.786829    33              -0.0002
iter: 101  02:53:05  -5.65            0.786829    33              -0.0002
iter: 102  02:53:06  -5.73            0.786829    33              -0.0002
iter: 103  02:53:07  -5.28            0.786829    33              -0.0002
iter: 104  02:53:08  -5.68            0.786829    33              -0.0002
iter: 105  02:53:09  -5.56            0.786829    33              -0.0002
iter: 106  02:53:10  -5.28            0.786829    33              -0.0002
iter: 107  02:53:10  -5.90            0.786829    33              -0.0002
iter: 108  02:53:11  -5.31            0.786829    33              -0.0002
iter: 109  02:53:12  -4.28            0.786829    33              -0.0002
iter: 110  02:53:13  -5.33            0.786829    33              -0.0002
iter: 111  02:53:14  -5.75            0.786829    33              -0.0002
iter: 112  02:53:15  -5.85            0.786829    33              -0.0002
iter: 113  02:53:16  -5.86            0.786829    33              -0.0002
iter: 114  02:53:17  -5.94            0.786829    33              -0.0002
iter: 115  02:53:18  -5.31            0.786829    33              -0.0002
iter: 116  02:53:19  -5.87            0.786829    33              -0.0002
iter: 117  02:53:20  -5.78            0.786829    33              -0.0002
iter: 118  02:53:21  -5.93            0.786829    33              -0.0002
iter: 119  02:53:22  -6.02            0.786829    33              -0.0002
iter: 120  02:53:23  -5.52            0.786829    33              -0.0002
iter: 121  02:53:24  -5.48            0.786829    33              -0.0002
iter: 122  02:53:25  -5.96            0.786829    33              -0.0002
iter: 123  02:53:26  -5.99            0.786829    33              -0.0002
iter: 124  02:53:27  -6.12            0.786829    33              -0.0002
iter: 125  02:53:28  -5.98            0.786829    33              -0.0002
iter: 126  02:53:28  -6.04            0.786829    33              -0.0002
iter: 127  02:53:29  -6.07            0.786829    33              -0.0002
iter: 128  02:53:30  -6.15            0.786829    33              -0.0002
iter: 129  02:53:31  -5.94            0.786829    33              -0.0002
iter: 130  02:53:32  -6.16            0.786829    33              -0.0002
iter: 131  02:53:33  -6.12            0.786829    33              -0.0002
iter: 132  02:53:34  -5.93            0.786829    33              -0.0002
iter: 133  02:53:35  -6.10            0.786829    33              -0.0002
iter: 134  02:53:36  -6.01            0.786829    33              -0.0002
iter: 135  02:53:37  -5.71            0.786829    33              -0.0002
iter: 136  02:53:38  -6.18            0.786829    33              -0.0002
iter: 137  02:53:39  -6.12            0.786829    33              -0.0002
iter: 138  02:53:40  -6.09            0.786829    33              -0.0002
iter: 139  02:53:41  -6.13            0.786829    33              -0.0002
iter: 140  02:53:42  -6.19            0.786829    33              -0.0002
iter: 141  02:53:43  -5.79            0.786829    33              -0.0002
iter: 142  02:53:44  -6.20            0.786829    33              -0.0002
iter: 143  02:53:45  -6.15            0.786829    33              -0.0002
iter: 144  02:53:45  -6.09            0.786829    33              -0.0002
iter: 145  02:53:46  -6.15            0.786829    33              -0.0002
iter: 146  02:53:47  -6.19            0.786829    33              -0.0002
iter: 147  02:53:48  -6.15            0.786829    33              -0.0002
iter: 148  02:53:49  -6.12            0.786829    33              -0.0002
iter: 149  02:53:50  -6.05            0.786829    33              -0.0002
iter: 150  02:53:51  -6.20            0.786829    33              -0.0002
iter: 151  02:53:52  -6.01            0.786829    33              -0.0002
iter: 152  02:53:53  -5.67            0.786829    33              -0.0002
iter: 153  02:53:54  -6.10            0.786829    33              -0.0002
iter: 154  02:53:55  -6.14            0.786829    33              -0.0002
iter: 155  02:53:56  -5.92            0.786829    33              -0.0002
iter: 156  02:53:57  -6.21            0.786829    33              -0.0002
iter: 157  02:53:57  -6.13            0.786829    33              -0.0002
iter: 158  02:53:58  -6.19            0.786829    33              -0.0002
iter: 159  02:53:59  -5.89            0.786829    33              -0.0002
iter: 160  02:54:00  -6.26            0.786829    33              -0.0002
iter: 161  02:54:01  -6.14            0.786829    33              -0.0002
iter: 162  02:54:02  -6.18            0.786829    33              -0.0002
iter: 163  02:54:03  -5.87            0.786829    33              -0.0002
iter: 164  02:54:04  -6.03            0.786829    33              -0.0002
iter: 165  02:54:05  -6.18            0.786829    33              -0.0002
iter: 166  02:54:06  -6.21            0.786829    33              -0.0002
iter: 167  02:54:07  -5.79            0.786829    33              -0.0002
iter: 168  02:54:08  -6.23            0.786829    33              -0.0002
iter: 169  02:54:09  -6.01            0.786829    33              -0.0002
iter: 170  02:54:09  -6.20            0.786829    33              -0.0002
iter: 171  02:54:10  -5.71            0.786829    33              -0.0002
iter: 172  02:54:11  -6.12            0.786829    33              -0.0002
iter: 173  02:54:12  -6.21            0.786829    33              -0.0002
iter: 174  02:54:13  -5.60            0.786829    33              -0.0002
iter: 175  02:54:14  -6.22            0.786829    33              -0.0002
iter: 176  02:54:15  -6.12            0.786829    33              -0.0002
iter: 177  02:54:16  -5.50            0.786829    33              -0.0002
iter: 178  02:54:17  -6.24            0.786829    33              -0.0002
iter: 179  02:54:18  -6.13            0.786829    33              -0.0002
iter: 180  02:54:19  -5.50            0.786829    33              -0.0002
iter: 181  02:54:20  -6.24            0.786829    33              -0.0002
iter: 182  02:54:20  -6.13            0.786829    33              -0.0002
iter: 183  02:54:21  -5.82            0.786829    33              -0.0002
iter: 184  02:54:22  -6.17            0.786829    33              -0.0002
iter: 185  02:54:23  -6.21            0.786829    33              -0.0002
iter: 186  02:54:24  -6.31            0.786829    33              -0.0002
iter: 187  02:54:25  -5.88            0.786829    33              -0.0002
iter: 188  02:54:26  -6.30            0.786829    33              -0.0002
iter: 189  02:54:27  -6.05            0.786829    33              -0.0002
iter: 190  02:54:28  -5.98            0.786829    33              -0.0002
iter: 191  02:54:29  -5.92            0.786829    33              -0.0002
iter: 192  02:54:30  -6.33            0.786829    33              -0.0002
iter: 193  02:54:30  -6.33            0.786829    33              -0.0002
iter: 194  02:54:31  -5.86            0.786829    33              -0.0002
iter: 195  02:54:32  -6.32            0.786829    33              -0.0002
iter: 196  02:54:33  -6.32            0.786829    33              -0.0002
iter: 197  02:54:34  -5.24            0.786829    33              -0.0002
iter: 198  02:54:35  -6.34            0.786829    33              -0.0002
iter: 199  02:54:36  -6.34            0.786829    33              -0.0002
iter: 200  02:54:37  -5.61            0.786829    33              -0.0002
iter: 201  02:54:38  -6.33            0.786829    33              -0.0002
iter: 202  02:54:38  -6.37            0.786829    33              -0.0002
iter: 203  02:54:39  -6.29            0.786829    33              -0.0002
iter: 204  02:54:40  -6.37            0.786829    33              -0.0002
iter: 205  02:54:41  -6.39            0.786829    33              -0.0002
iter: 206  02:54:42  -5.16            0.786829    33              -0.0002
iter: 207  02:54:43  -6.20            0.786829    33              -0.0002
iter: 208  02:54:44  -6.40            0.786829    33              -0.0002
iter: 209  02:54:45  -6.41            0.786829    33              -0.0002
iter: 210  02:54:45  -6.15            0.786829    33              -0.0002
iter: 211  02:54:46  -6.40            0.786829    33              -0.0002
iter: 212  02:54:47  -6.41            0.786829    33              -0.0002
iter: 213  02:54:48  -6.21            0.786829    33              -0.0002
iter: 214  02:54:49  -6.36            0.786829    33              -0.0002
iter: 215  02:54:50  -6.42            0.786829    33              -0.0002
iter: 216  02:54:51  -6.44            0.786829    33              -0.0002
iter: 217  02:54:52  -5.89            0.786829    33              -0.0002
iter: 218  02:54:53  -6.26            0.786829    33              -0.0002
iter: 219  02:54:53  -6.43            0.786829    33              -0.0002
iter: 220  02:54:54  -6.45            0.786829    33              -0.0002
iter: 221  02:54:55  -5.87            0.786829    33              -0.0002
iter: 222  02:54:56  -6.46            0.786829    33              -0.0002
iter: 223  02:54:57  -6.45            0.786829    33              -0.0002
iter: 224  02:54:58  -6.32            0.786829    33              -0.0002
iter: 225  02:54:59  -6.44            0.786829    33              -0.0002
iter: 226  02:55:00  -6.48            0.786829    33              -0.0002
iter: 227  02:55:01  -6.31            0.786829    33              -0.0002
iter: 228  02:55:02  -6.46            0.786829    33              -0.0002
iter: 229  02:55:02  -6.49            0.786829    33              -0.0002
iter: 230  02:55:03  -6.42            0.786829    33              -0.0002
iter: 231  02:55:04  -6.48            0.786829    33              -0.0002
iter: 232  02:55:05  -6.48            0.786829    33              -0.0002
iter: 233  02:55:06  -6.51            0.786829    33              -0.0002
iter: 234  02:55:07  -6.34            0.786829    33              -0.0002
iter: 235  02:55:08  -6.47            0.786829    33              -0.0002
iter: 236  02:55:09  -6.48            0.786829    33              -0.0002
iter: 237  02:55:10  -6.52            0.786829    33              -0.0002
iter: 238  02:55:10  -6.42            0.786829    33              -0.0002
iter: 239  02:55:11  -6.50            0.786829    33              -0.0002
iter: 240  02:55:12  -6.53            0.786829    33              -0.0002
iter: 241  02:55:13  -6.44            0.786829    33              -0.0002
iter: 242  02:55:14  -6.52            0.786829    33              -0.0002
iter: 243  02:55:15  -6.55            0.786829    33              -0.0002
iter: 244  02:55:16  -6.48            0.786829    33              -0.0002
iter: 245  02:55:17  -6.55            0.786829    33              -0.0002
iter: 246  02:55:18  -6.52            0.786829    33              -0.0002
iter: 247  02:55:18  -6.57            0.786829    33              -0.0002
iter: 248  02:55:19  -6.50            0.786829    33              -0.0002
iter: 249  02:55:20  -6.55            0.786829    33              -0.0002
iter: 250  02:55:21  -6.57            0.786829    33              -0.0002
iter: 251  02:55:22  -6.46            0.786829    33              -0.0002
iter: 252  02:55:23  -6.56            0.786829    33              -0.0002
iter: 253  02:55:24  -6.59            0.786829    33              -0.0002
iter: 254  02:55:25  -6.53            0.786829    33              -0.0002
iter: 255  02:55:26  -6.58            0.786829    33              -0.0002
iter: 256  02:55:26  -6.59            0.786829    33              -0.0002
iter: 257  02:55:27  -6.51            0.786829    33              -0.0002
iter: 258  02:55:28  -6.59            0.786829    33              -0.0002
iter: 259  02:55:29  -6.61            0.786829    33              -0.0002
iter: 260  02:55:30  -6.57            0.786829    33              -0.0002
iter: 261  02:55:31  -6.61            0.786829    33              -0.0002
iter: 262  02:55:32  -6.61            0.786829    33              -0.0002
iter: 263  02:55:33  -6.62            0.786829    33              -0.0002
iter: 264  02:55:34  -6.63            0.786829    33              -0.0002
iter: 265  02:55:34  -6.62            0.786829    33              -0.0002
iter: 266  02:55:35  -6.63            0.786829    33              -0.0002
iter: 267  02:55:36  -6.63            0.786829    33              -0.0002
iter: 268  02:55:37  -6.64            0.786829    33              -0.0002
iter: 269  02:55:38  -6.64            0.786829    33              -0.0002
iter: 270  02:55:39  -6.64            0.786829    33              -0.0002
iter: 271  02:55:40  -6.67            0.786829    33              -0.0002
iter: 272  02:55:41  -6.64            0.786829    33              -0.0002
iter: 273  02:55:42  -6.68            0.786829    33              -0.0002
iter: 274  02:55:42  -6.65            0.786829    33              -0.0002
iter: 275  02:55:43  -6.69            0.786829    33              -0.0002
iter: 276  02:55:44  -6.66            0.786829    33              -0.0002
iter: 277  02:55:45  -6.70            0.786829    33              -0.0002
iter: 278  02:55:46  -6.67            0.786829    33              -0.0002
iter: 279  02:55:47  -6.71            0.786829    33              -0.0002
iter: 280  02:55:48  -6.67            0.786829    33              -0.0002
iter: 281  02:55:49  -6.70            0.786829    33              -0.0002
iter: 282  02:55:50  -6.71            0.786829    33              -0.0002
iter: 283  02:55:50  -6.70            0.786829    33              -0.0002
iter: 284  02:55:51  -6.70            0.786829    33              -0.0002
iter: 285  02:55:52  -6.73            0.786829    33              -0.0002
iter: 286  02:55:53  -6.70            0.786829    33              -0.0002
iter: 287  02:55:54  -6.74            0.786829    33              -0.0002
iter: 288  02:55:55  -6.71            0.786829    33              -0.0002
iter: 289  02:55:56  -6.73            0.786829    33              -0.0002
iter: 290  02:55:57  -6.55            0.786829    33              -0.0002
iter: 291  02:55:58  -6.70            0.786829    33              -0.0002
iter: 292  02:55:58  -6.73            0.786829    33              -0.0002
iter: 293  02:55:59  -6.67            0.786829    33              -0.0002
iter: 294  02:56:00  -6.73            0.786829    33              -0.0002
iter: 295  02:56:01  -6.76            0.786829    33              -0.0002
iter: 296  02:56:02  -6.72            0.786829    33              -0.0002
iter: 297  02:56:03  -6.75            0.786829    33              -0.0002
iter: 298  02:56:04  -6.74            0.786829    33              -0.0002
iter: 299  02:56:05  -6.58            0.786829    33              -0.0002
iter: 300  02:56:05  -6.67            0.786829    33              -0.0002
iter: 301  02:56:06  -6.80            0.786829    33              -0.0002
iter: 302  02:56:07  -6.31            0.786829    33              -0.0002
iter: 303  02:56:08  -6.81            0.786829    33              -0.0002
iter: 304  02:56:09  -6.79            0.786829    33              -0.0002
iter: 305  02:56:10  -6.81            0.786829    33              -0.0002
iter: 306  02:56:11  -6.77            0.786829    33              -0.0002
iter: 307  02:56:12  -6.80            0.786829    33              -0.0002
iter: 308  02:56:12  -6.79            0.786829    33              -0.0002
iter: 309  02:56:13  -6.83            0.786829    33              -0.0002
iter: 310  02:56:14  -6.83            0.786829    33              -0.0002
iter: 311  02:56:15  -6.84            0.786829    33              -0.0002
iter: 312  02:56:16  -6.83            0.786829    33              -0.0002
iter: 313  02:56:17  -6.81            0.786829    33              -0.0002
iter: 314  02:56:18  -6.86            0.786829    33              -0.0002
iter: 315  02:56:19  -6.88            0.786829    33              -0.0002
iter: 316  02:56:19  -6.86            0.786829    33              -0.0002
iter: 317  02:56:20  -6.67            0.786829    33              -0.0002
iter: 318  02:56:21  -6.88            0.786829    33              -0.0002
iter: 319  02:56:22  -6.87            0.786829    33              -0.0002
iter: 320  02:56:23  -6.86            0.786829    33              -0.0002
iter: 321  02:56:24  -6.91            0.786829    33              -0.0002
iter: 322  02:56:25  -6.87            0.786829    33              -0.0002
iter: 323  02:56:26  -6.92            0.786829    33              -0.0002
iter: 324  02:56:27  -6.90            0.786829    33              -0.0002
iter: 325  02:56:27  -6.77            0.786829    33              -0.0002
iter: 326  02:56:28  -6.91            0.786829    33              -0.0002
iter: 327  02:56:29  -6.93            0.786829    33              -0.0002
iter: 328  02:56:30  -6.84            0.786829    33              -0.0002
iter: 329  02:56:31  -6.94            0.786829    33              -0.0002
iter: 330  02:56:32  -6.93            0.786829    33              -0.0002
iter: 331  02:56:33  -6.85            0.786829    33              -0.0002
iter: 332  02:56:34  -6.95            0.786829    33              -0.0002
iter: 333  02:56:34  -6.96            0.786829    33              -0.0002
iter: 334  02:56:35  -6.95            0.786829    33              -0.0002
iter: 335  02:56:36  -6.96            0.786829    33              -0.0002
iter: 336  02:56:37  -6.96            0.786829    33              -0.0002
iter: 337  02:56:38  -6.99            0.786829    33              -0.0002
iter: 338  02:56:39  -6.89            0.786829    33              -0.0002
iter: 339  02:56:40  -6.99            0.786829    33              -0.0002
iter: 340  02:56:40  -6.98            0.786829    33              -0.0002
iter: 341  02:56:41  -6.95            0.786829    33              -0.0002
iter: 342  02:56:42  -6.99            0.786829    33              -0.0002
iter: 343  02:56:43  -7.01            0.786829    33              -0.0002
iter: 344  02:56:44  -6.92            0.786829    33              -0.0002
iter: 345  02:56:45  -6.89            0.786829    33              -0.0002
iter: 346  02:56:46  -6.99            0.786829    33              -0.0002
iter: 347  02:56:47  -7.03            0.786829    33              -0.0002
iter: 348  02:56:47  -7.03            0.786829    33              -0.0002
iter: 349  02:56:48  -7.05            0.786829    33              -0.0002
iter: 350  02:56:49  -6.80            0.786829    33              -0.0002
iter: 351  02:56:50  -7.04            0.786829    33              -0.0002
iter: 352  02:56:51  -7.05            0.786829    33              -0.0002
iter: 353  02:56:52  -7.07            0.786829    33              -0.0002
iter: 354  02:56:53  -7.06            0.786829    33              -0.0002
iter: 355  02:56:54  -7.08            0.786829    33              -0.0002
iter: 356  02:56:54  -7.07            0.786829    33              -0.0002
iter: 357  02:56:55  -7.08            0.786829    33              -0.0002
iter: 358  02:56:56  -7.08            0.786829    33              -0.0002
iter: 359  02:56:57  -7.09            0.786829    33              -0.0002
iter: 360  02:56:58  -7.09            0.786829    33              -0.0002
iter: 361  02:56:59  -7.10            0.786829    33              -0.0002
iter: 362  02:57:00  -7.10            0.786829    33              -0.0002
iter: 363  02:57:00  -7.11            0.786829    33              -0.0002
iter: 364  02:57:01  -7.11            0.786829    33              -0.0002
iter: 365  02:57:02  -7.12            0.786829    33              -0.0002
iter: 366  02:57:03  -7.12            0.786829    33              -0.0002
iter: 367  02:57:04  -7.13            0.786829    33              -0.0002
iter: 368  02:57:05  -7.13            0.786829    33              -0.0002
iter: 369  02:57:06  -7.14            0.786829    33              -0.0002
iter: 370  02:57:07  -7.14            0.786829    33              -0.0002
iter: 371  02:57:07  -7.15            0.786829    33              -0.0002
iter: 372  02:57:08  -7.15            0.786829    33              -0.0002
iter: 373  02:57:09  -7.16            0.786829    33              -0.0002
iter: 374  02:57:10  -7.16            0.786829    33              -0.0002
iter: 375  02:57:11  -7.17            0.786829    33              -0.0002
iter: 376  02:57:12  -7.14            0.786829    33              -0.0002
iter: 377  02:57:13  -7.19            0.786829    33              -0.0002
iter: 378  02:57:14  -7.12            0.786829    33              -0.0002
iter: 379  02:57:14  -7.19            0.786829    33              -0.0002
iter: 380  02:57:15  -7.15            0.786829    33              -0.0002
iter: 381  02:57:16  -7.21            0.786829    33              -0.0002
iter: 382  02:57:17  -7.11            0.786829    33              -0.0002
iter: 383  02:57:18  -7.21            0.786829    33              -0.0002
iter: 384  02:57:19  -7.16            0.786829    33              -0.0002
iter: 385  02:57:20  -7.23            0.786829    33              -0.0002
iter: 386  02:57:20  -7.07            0.786829    33              -0.0002
iter: 387  02:57:21  -7.23            0.786829    33              -0.0002
iter: 388  02:57:22  -7.15            0.786829    33              -0.0002
iter: 389  02:57:23  -7.24            0.786829    33              -0.0002
iter: 390  02:57:24  -6.98            0.786829    33              -0.0002
iter: 391  02:57:25  -7.25            0.786829    33              -0.0002
iter: 392  02:57:26  -7.09            0.786829    33              -0.0002
iter: 393  02:57:27  -7.26            0.786829    33              -0.0002
iter: 394  02:57:27  -6.83            0.786829    33              -0.0002
iter: 395  02:57:28  -7.26            0.786829    33              -0.0002
iter: 396  02:57:29  -7.27            0.786829    33              -0.0002
iter: 397  02:57:30  -6.94            0.786829    33              -0.0002
iter: 398  02:57:31  -7.27            0.786829    33              -0.0002
iter: 399  02:57:32  -7.28            0.786829    33              -0.0002
iter: 400  02:57:33  -7.28            0.786829    33              -0.0002
iter: 401  02:57:33  -7.07            0.786829    33              -0.0002
iter: 402  02:57:34  -7.29            0.786829    33              -0.0002
iter: 403  02:57:35  -7.30            0.786829    33              -0.0002
iter: 404  02:57:36  -7.04            0.786829    33              -0.0002
iter: 405  02:57:37  -7.30            0.786829    33              -0.0002
iter: 406  02:57:38  -7.32            0.786829    33              -0.0002
iter: 407  02:57:39  -7.25            0.786829    33              -0.0002
iter: 408  02:57:39  -7.31            0.786829    33              -0.0002
iter: 409  02:57:40  -7.33            0.786829    33              -0.0002
iter: 410  02:57:41  -7.22            0.786829    33              -0.0002
iter: 411  02:57:42  -7.35            0.786829    33              -0.0002
iter: 412  02:57:43  -7.33            0.786829    33              -0.0002
iter: 413  02:57:44  -7.22            0.786829    33              -0.0002
iter: 414  02:57:45  -7.35            0.786829    33              -0.0002
iter: 415  02:57:46  -7.35            0.786829    33              -0.0002
iter: 416  02:57:46  -7.06            0.786829    33              -0.0002
iter: 417  02:57:47  -7.37            0.786829    33              -0.0002
iter: 418  02:57:48  -7.36            0.786829    33              -0.0002
iter: 419  02:57:49  -7.26            0.786829    33              -0.0002
iter: 420  02:57:50  -7.38            0.786829    33              -0.0002
iter: 421  02:57:51  -7.38            0.786829    33              -0.0002
iter: 422  02:57:52  -7.27            0.786829    33              -0.0002
iter: 423  02:57:52  -7.40            0.786829    33              -0.0002

Converged after 423 iterations.

Dipole moment: (0.000000, -0.000000, 0.000000) |e|*Ang

Total magnetic moment: -0.000169
Local magnetic moments:
   0 I  -0.000238

Energy contributions relative to reference atoms: (reference = -193540.795666)

Kinetic:         +1.745147
Potential:       +0.358692
External:        +0.000000
XC:              -1.308549
Entropy (-ST):   -0.004283
Local:           -0.006320
--------------------------
Free energy:     +0.784687
Extrapolated:    +0.786829

Spin contamination: 0.000234 electrons
Fixed Fermi level: 4.28952

Warning: Showing only first 2 kpts
                      Up                     Down
 Kpt  Band  Eigenvalues  Occupancy  Eigenvalues  Occupancy
  0     1      5.02427    0.00000      5.02414    0.00000
  0     2      5.02453    0.00000      5.02441    0.00000
  0     3      5.02453    0.00000      5.02441    0.00000
  0     4     11.16034    0.00000     11.16070    0.00000

  1     1      4.86900    0.00168      4.86889    0.00169
  1     2      4.96958    0.00001      4.96946    0.00001
  1     3      4.96981    0.00001      4.96969    0.00001
  1     4     11.34485    0.00000     11.34520    0.00000


Timing:                              incl.     excl.
-----------------------------------------------------------
Hamiltonian:                         0.699     0.002   0.0% |
 Atomic:                             0.506     0.002   0.0% |
  XC Correction:                     0.504     0.504   0.1% |
 Calculate atomic Hamiltonians:      0.009     0.009   0.0% |
 Communicate:                        0.000     0.000   0.0% |
 Initialize Hamiltonian:             0.001     0.001   0.0% |
 Poisson:                            0.000     0.000   0.0% |
 XC 3D grid:                         0.182     0.182   0.0% |
LCAO initialization:                 1.532     0.049   0.0% |
 LCAO eigensolver:                   0.920     0.015   0.0% |
  Calculate projections:             0.004     0.004   0.0% |
  DenseAtomicCorrection:             0.027     0.027   0.0% |
  Distribute overlap matrix:         0.006     0.006   0.0% |
  Orbital Layouts:                   0.026     0.026   0.0% |
  Potential matrix:                  0.073     0.073   0.0% |
  Sum over cells:                    0.770     0.770   0.2% |
 LCAO to grid:                       0.381     0.381   0.1% |
 Set positions (LCAO WFS):           0.182     0.001   0.0% |
  Basic WFS set positions:           0.002     0.002   0.0% |
  Basis functions set positions:     0.000     0.000   0.0% |
  TCI: Calculate S, T, P:            0.179     0.179   0.0% |
PWDescriptor:                        0.022     0.022   0.0% |
Redistribute:                        0.000     0.000   0.0% |
SCF-cycle:                         457.205   147.435  31.9% |------------|
 CG:                               143.841   128.329  27.8% |----------|
  CG: orthonormalize:               15.512     9.041   2.0% ||
   CG: overlap:                      4.221     4.221   0.9% |
   CG: overlap2:                     2.250     2.250   0.5% |
 Davidson:                          10.985     6.729   1.5% ||
  calc. matrices:                    3.024     3.024   0.7% |
  diagonalize:                       0.666     0.666   0.1% |
  rotate_psi:                        0.567     0.567   0.1% |
 Density:                            4.099     0.002   0.0% |
  Atomic density matrices:           0.208     0.208   0.0% |
  Mix:                               0.309     0.309   0.1% |
  Multipole moments:                 0.010     0.010   0.0% |
  Pseudo density:                    3.570     2.013   0.4% |
   Symmetrize density:               1.557     1.557   0.3% |
 Hamiltonian:                       13.107     0.025   0.0% |
  Atomic:                            9.830     0.036   0.0% |
   XC Correction:                    9.794     9.794   2.1% ||
  Calculate atomic Hamiltonians:     0.146     0.146   0.0% |
  Communicate:                       0.000     0.000   0.0% |
  Poisson:                           0.010     0.010   0.0% |
  XC 3D grid:                        3.095     3.095   0.7% |
 Orthonormalize:                     0.167     0.011   0.0% |
  Band Layouts:                      0.008     0.003   0.0% |
   Inverse Cholesky:                 0.005     0.005   0.0% |
  calc_s_matrix:                     0.026     0.026   0.0% |
  projections:                       0.099     0.099   0.0% |
  rotate_psi:                        0.023     0.023   0.0% |
 Residuals:                         36.660    36.660   7.9% |--|
 Subspace diag:                    100.910     5.231   1.1% |
  Band Layouts:                      9.752     1.505   0.3% |
   Diagonalize:                      7.186     7.186   1.6% ||
   Distribute results:               1.061     1.061   0.2% |
  calc_h_matrix:                    73.195    73.195  15.8% |-----|
  rotate_psi:                       12.732    12.732   2.8% ||
Set symmetry:                        0.105     0.105   0.0% |
Other:                               2.402     2.402   0.5% |
-----------------------------------------------------------
Total:                                       461.965 100.0%

Date: Fri Feb 12 02:57:53 2021
element =  I
struct =  bcc
kpts =  (8,8,8)
element =  I
configuration =  [Kr] 4d10 5s2 5p5 5d0
valence =  ['5s', '5p', '5d']
occupations =  {'5s': 2, '5p': 5, '5d': 0}
nls =  5p
rNum =  600
lmax =  d
*******************************************
Starting confinement parameter optimization
Adjustable parameters and initial values:
  I_5d.r0 : 5.253439
  I_5p.r0 : 5.253439
  I_5s.r0 : 5.253439
  I_n.r0 : 7.880158
*******************************************

OPT_VAL: 5.25343862982666   5.25343862982666   5.25343862982666   7.88015794473999
VCONF:
  I_5d : PowerConfinement(r0=5.253439, s=2.000000)
  I_5p : PowerConfinement(r0=5.253439, s=2.000000)
  I_5s : PowerConfinement(r0=5.253439, s=2.000000)
  I_n : PowerConfinement(r0=7.880158, s=2.000000)
RESIDUAL: 0.0

OPT_VAL: 5.45343862982666   5.25343862982666   5.25343862982666   7.88015794473999
VCONF:
  I_5d : PowerConfinement(r0=5.453439, s=2.000000)
  I_5p : PowerConfinement(r0=5.253439, s=2.000000)
  I_5s : PowerConfinement(r0=5.253439, s=2.000000)
  I_n : PowerConfinement(r0=7.880158, s=2.000000)
RESIDUAL: 0.0

OPT_VAL: 5.25343862982666   5.45343862982666   5.25343862982666   7.88015794473999
VCONF:
  I_5d : PowerConfinement(r0=5.253439, s=2.000000)
  I_5p : PowerConfinement(r0=5.453439, s=2.000000)
  I_5s : PowerConfinement(r0=5.253439, s=2.000000)
  I_n : PowerConfinement(r0=7.880158, s=2.000000)
RESIDUAL: 0.0

OPT_VAL: 5.25343862982666   5.25343862982666   5.45343862982666   7.88015794473999
VCONF:
  I_5d : PowerConfinement(r0=5.253439, s=2.000000)
  I_5p : PowerConfinement(r0=5.253439, s=2.000000)
  I_5s : PowerConfinement(r0=5.453439, s=2.000000)
  I_n : PowerConfinement(r0=7.880158, s=2.000000)
RESIDUAL: 0.0

OPT_VAL: 5.25343862982666   5.25343862982666   5.25343862982666   8.08015794473999
VCONF:
  I_5d : PowerConfinement(r0=5.253439, s=2.000000)
  I_5p : PowerConfinement(r0=5.253439, s=2.000000)
  I_5s : PowerConfinement(r0=5.253439, s=2.000000)
  I_n : PowerConfinement(r0=8.080158, s=2.000000)
RESIDUAL: 0.0

OPT_VAL: 5.278438629826661   5.25343862982666   5.25343862982666   7.88015794473999
VCONF:
  I_5d : PowerConfinement(r0=5.278439, s=2.000000)
  I_5p : PowerConfinement(r0=5.253439, s=2.000000)
  I_5s : PowerConfinement(r0=5.253439, s=2.000000)
  I_n : PowerConfinement(r0=7.880158, s=2.000000)
RESIDUAL: 0.0

OPT_VAL: 5.25343862982666   5.278438629826661   5.25343862982666   7.88015794473999
VCONF:
  I_5d : PowerConfinement(r0=5.253439, s=2.000000)
  I_5p : PowerConfinement(r0=5.278439, s=2.000000)
  I_5s : PowerConfinement(r0=5.253439, s=2.000000)
  I_n : PowerConfinement(r0=7.880158, s=2.000000)
RESIDUAL: 0.0

OPT_VAL: 5.25343862982666   5.25343862982666   5.278438629826661   7.88015794473999
VCONF:
  I_5d : PowerConfinement(r0=5.253439, s=2.000000)
  I_5p : PowerConfinement(r0=5.253439, s=2.000000)
  I_5s : PowerConfinement(r0=5.278439, s=2.000000)
  I_n : PowerConfinement(r0=7.880158, s=2.000000)
RESIDUAL: 0.0

OPT_VAL: 5.25343862982666   5.25343862982666   5.25343862982666   7.90515794473999
VCONF:
  I_5d : PowerConfinement(r0=5.253439, s=2.000000)
  I_5p : PowerConfinement(r0=5.253439, s=2.000000)
  I_5s : PowerConfinement(r0=5.253439, s=2.000000)
  I_n : PowerConfinement(r0=7.905158, s=2.000000)
RESIDUAL: 0.0

OPT_VAL: 5.25843862982666   5.25343862982666   5.25343862982666   7.88015794473999
VCONF:
  I_5d : PowerConfinement(r0=5.258439, s=2.000000)
  I_5p : PowerConfinement(r0=5.253439, s=2.000000)
  I_5s : PowerConfinement(r0=5.253439, s=2.000000)
  I_n : PowerConfinement(r0=7.880158, s=2.000000)
RESIDUAL: 0.0

OPT_VAL: 5.25343862982666   5.25843862982666   5.25343862982666   7.88015794473999
VCONF:
  I_5d : PowerConfinement(r0=5.253439, s=2.000000)
  I_5p : PowerConfinement(r0=5.258439, s=2.000000)
  I_5s : PowerConfinement(r0=5.253439, s=2.000000)
  I_n : PowerConfinement(r0=7.880158, s=2.000000)
RESIDUAL: 0.0

OPT_VAL: 5.25343862982666   5.25343862982666   5.25843862982666   7.88015794473999
VCONF:
  I_5d : PowerConfinement(r0=5.253439, s=2.000000)
  I_5p : PowerConfinement(r0=5.253439, s=2.000000)
  I_5s : PowerConfinement(r0=5.258439, s=2.000000)
  I_n : PowerConfinement(r0=7.880158, s=2.000000)
RESIDUAL: 0.0

OPT_VAL: 5.25343862982666   5.25343862982666   5.25343862982666   7.88515794473999
VCONF:
  I_5d : PowerConfinement(r0=5.253439, s=2.000000)
  I_5p : PowerConfinement(r0=5.253439, s=2.000000)
  I_5s : PowerConfinement(r0=5.253439, s=2.000000)
  I_n : PowerConfinement(r0=7.885158, s=2.000000)
RESIDUAL: 0.0

*******************************************
Optimization finished after 13 iterations
Adjustable parameters and final values:
  I_5d.r0 : 5.253439
  I_5p.r0 : 5.253439
  I_5s.r0 : 5.253439
  I_n.r0 : 7.880158
*******************************************

VCONF:
  I_5d : PowerConfinement(r0=5.253439, s=2.000000)
  I_5p : PowerConfinement(r0=5.253439, s=2.000000)
  I_5s : PowerConfinement(r0=5.253439, s=2.000000)
  I_n : PowerConfinement(r0=7.880158, s=2.000000)
