element =  H
struct =  bcc
nbands =  -4
path =  GHNGP
kpts =  (8,8,8)
lattice constant a =  1.813
lattice constant b =  1.813
lattice constant c =  1.813
alpha angle =  90.0

  ___ ___ ___ _ _ _  
 |   |   |_  | | | | 
 | | | | | . | | | | 
 |__ |  _|___|_____|  1.3.1b1
 |___|_|             

User:   inukai@DESKTOP-12SE80T
Date:   Thu Feb 11 12:35:49 2021
Arch:   x86_64
Pid:    7886
Python: 3.6.9
gpaw:   /usr/lib/python3/dist-packages/gpaw
_gpaw:  /usr/lib/python3/dist-packages/_gpaw.cpython-36m-x86_64-linux-gnu.so
ase:    /home/inukai/hotcent/ase-3.19.3/ase (version 3.19.3)
numpy:  /home/inukai/.local/lib/python3.6/site-packages/numpy (version 1.19.5)
scipy:  /home/inukai/.local/lib/python3.6/site-packages/scipy (version 1.5.4)
units:  Angstrom and eV
cores:  1

Input parameters:
  kpts: [8 8 8]
  maxiter: 1500
  mixer: {backend: pulay,
          beta: 0.01,
          method: separate,
          nmaxold: 11,
          weight: 100.0}
  mode: {ecut: 400.0,
         name: pw}
  occupations: {name: fermi-dirac,
                width: 0.02}
  spinpol: True
  xc: PBE

System changes: positions, numbers, cell, pbc, initial_charges, initial_magmoms 

Initialize ...

H-setup:
  name: Hydrogen
  id: d65de229564ff8ea4db303e23b6d1ecf
  Z: 1
  valence: 1
  core: 0
  charge: 0.0
  file: /usr/share/gpaw-setups/H.PBE.gz
  cutoffs: 0.48(comp), 0.85(filt), 0.53(core), lmax=2
  valence states:
                energy  radius
    1s(1.00)    -6.494   0.476
    *s          20.717   0.476
    *p           0.000   0.476

  Using partial waves for H as LCAO basis

Reference energy: -12.490162

Spin-polarized calculation.
Magnetic moment:  0.000000

Occupation numbers:
  Fermi-Dirac: width=0.0200 eV

Convergence criteria:
  Maximum total energy change: 0.0005 eV / electron
  Maximum integral of absolute density change: 0.0001 electrons
  Maximum integral of absolute eigenstate change: 4e-08 eV^2
  Maximum number of iterations: 1500

Symmetries present (total): 48

  ( 1  1  1)  ( 1  1  1)  ( 1  1  1)  ( 1  1  1)  ( 1  1  1)  ( 1  1  1)
  ( 0  0 -1)  ( 0  0 -1)  ( 0 -1  0)  ( 0 -1  0)  (-1  0  0)  (-1  0  0)
  ( 0 -1  0)  (-1  0  0)  ( 0  0 -1)  (-1  0  0)  ( 0  0 -1)  ( 0 -1  0)

  ( 1  0  0)  ( 1  0  0)  ( 1  0  0)  ( 1  0  0)  ( 1  0  0)  ( 1  0  0)
  ( 0  1  0)  ( 0  1  0)  ( 0  0  1)  ( 0  0  1)  (-1 -1 -1)  (-1 -1 -1)
  ( 0  0  1)  (-1 -1 -1)  ( 0  1  0)  (-1 -1 -1)  ( 0  1  0)  ( 0  0  1)

  ( 0  1  0)  ( 0  1  0)  ( 0  1  0)  ( 0  1  0)  ( 0  1  0)  ( 0  1  0)
  ( 1  0  0)  ( 1  0  0)  ( 0  0  1)  ( 0  0  1)  (-1 -1 -1)  (-1 -1 -1)
  ( 0  0  1)  (-1 -1 -1)  ( 1  0  0)  (-1 -1 -1)  ( 1  0  0)  ( 0  0  1)

  ( 0  0  1)  ( 0  0  1)  ( 0  0  1)  ( 0  0  1)  ( 0  0  1)  ( 0  0  1)
  ( 1  0  0)  ( 1  0  0)  ( 0  1  0)  ( 0  1  0)  (-1 -1 -1)  (-1 -1 -1)
  ( 0  1  0)  (-1 -1 -1)  ( 1  0  0)  (-1 -1 -1)  ( 1  0  0)  ( 0  1  0)

  ( 0  0 -1)  ( 0  0 -1)  ( 0  0 -1)  ( 0  0 -1)  ( 0  0 -1)  ( 0  0 -1)
  ( 1  1  1)  ( 1  1  1)  ( 0 -1  0)  ( 0 -1  0)  (-1  0  0)  (-1  0  0)
  ( 0 -1  0)  (-1  0  0)  ( 1  1  1)  (-1  0  0)  ( 1  1  1)  ( 0 -1  0)

  ( 0 -1  0)  ( 0 -1  0)  ( 0 -1  0)  ( 0 -1  0)  ( 0 -1  0)  ( 0 -1  0)
  ( 1  1  1)  ( 1  1  1)  ( 0  0 -1)  ( 0  0 -1)  (-1  0  0)  (-1  0  0)
  ( 0  0 -1)  (-1  0  0)  ( 1  1  1)  (-1  0  0)  ( 1  1  1)  ( 0  0 -1)

  (-1  0  0)  (-1  0  0)  (-1  0  0)  (-1  0  0)  (-1  0  0)  (-1  0  0)
  ( 1  1  1)  ( 1  1  1)  ( 0  0 -1)  ( 0  0 -1)  ( 0 -1  0)  ( 0 -1  0)
  ( 0  0 -1)  ( 0 -1  0)  ( 1  1  1)  ( 0 -1  0)  ( 1  1  1)  ( 0  0 -1)

  (-1 -1 -1)  (-1 -1 -1)  (-1 -1 -1)  (-1 -1 -1)  (-1 -1 -1)  (-1 -1 -1)
  ( 1  0  0)  ( 1  0  0)  ( 0  1  0)  ( 0  1  0)  ( 0  0  1)  ( 0  0  1)
  ( 0  1  0)  ( 0  0  1)  ( 1  0  0)  ( 0  0  1)  ( 1  0  0)  ( 0  1  0)

512 k-points: 8 x 8 x 8 Monkhorst-Pack grid
26 k-points in the irreducible part of the Brillouin zone
       k-points in crystal coordinates                weights
   0:     0.06250000    0.06250000   -0.06250000          6/512
   1:     0.18750000   -0.06250000   -0.06250000          8/512
   2:     0.18750000    0.06250000   -0.06250000         24/512
   3:     0.18750000    0.18750000   -0.18750000          6/512
   4:     0.31250000   -0.06250000   -0.06250000         24/512
   5:     0.31250000    0.06250000   -0.18750000         24/512
   6:     0.31250000    0.06250000   -0.06250000         24/512
   7:     0.31250000    0.18750000   -0.18750000         24/512
   8:     0.31250000    0.31250000   -0.31250000          6/512
   9:     0.31250000    0.31250000    0.18750000         12/512
          ...
  25:     0.43750000    0.43750000    0.43750000          8/512

Wave functions: Plane wave expansion
  Cutoff energy: 400.000 eV
  Number of coefficients (min, max): 47, 57
  Using FFTW library
  Eigensolver: None  MatrixOperator buffer_size: default value or 
                              see value of nblock in input file
Diagonalizer layout: Serial LAPACKOrthonormalizer layout: Serial LAPACK 

Davidson(niter=1, smin=None, normalize=True) 

Densities:
  Coarse grid: 6*6*6 grid
  Fine grid: 12*12*12 grid
  Total Charge: 0.000000 

Density mixing:
  Method: separate
  Backend: pulay
  Linear mixing parameter: 0.01
  Mixing with 11 old densities
  Damping of long wave oscillations: 100 

Hamiltonian:
  XC and Coulomb potentials evaluated on a 12*12*12 grid
  Using the PBE Exchange-Correlation functional
 

Memory estimate:
  Process memory now: 925.06 MiB
  Calculator: 0.36 MiB
    Density: 0.16 MiB
      Arrays: 0.06 MiB
      Localized functions: 0.03 MiB
      Mixer: 0.07 MiB
    Hamiltonian: 0.04 MiB
      Arrays: 0.04 MiB
      XC: 0.00 MiB
      Poisson: 0.00 MiB
      vbar: 0.00 MiB
    Wavefunctions: 0.15 MiB
      Arrays psit_nG: 0.05 MiB
      Eigensolver: 0.01 MiB
      Projections: 0.00 MiB
      Projectors: 0.07 MiB
      Overlap op: 0.00 MiB
      PW-descriptor: 0.02 MiB

Total number of cores used: 1

Number of atoms: 1
Number of atomic orbitals: 1
Number of bands in calculation: 1
Bands to converge: occupied states only
Number of valence electrons: 1

... initialized

Initializing position-dependent things.

Density initialized from atomic densities
Creating initial wave functions:
  1 band from LCAO basis set

                
                
                
       H        
                
                
                
                

Positions:
   0 H      0.000000    0.000000    0.000000

Unit cell:
           periodic     x           y           z      points  spacing
  1. axis:    yes   -0.906500    0.906500    0.906500     6     0.2137
  2. axis:    yes    0.906500   -0.906500    0.906500     6     0.2137
  3. axis:    yes    0.906500    0.906500   -0.906500     6     0.2137

  Lengths:   1.570104   1.570104   1.570104
  Angles:  109.471221 109.471221 109.471221

Effective grid spacing dv^(1/3) = 0.2398

                     log10-error:    total        iterations:
           time      wfs    density  energy       fermi  poisson  magmom
iter:   1  12:35:52  +1.65   +inf    -2.152490    28              +0.0000
iter:   2  12:35:52  -0.13   +inf    -2.161211    28              -0.0000
iter:   3  12:35:52  -1.79   +inf    -2.161593    3               +0.0000
iter:   4  12:35:52  -2.73  -2.17    -2.161634    2               +0.0000
iter:   5  12:35:53  -3.89  -2.17    -2.161210    3               +0.0000
iter:   6  12:35:53  -2.80  -2.05    -2.162393    4               -0.0000
iter:   7  12:35:53  -5.13  -3.54    -2.162395    2               +0.0000
iter:   8  12:35:53  -6.84  -3.84    -2.162395    1               +0.0000
iter:   9  12:35:54  -5.57  -3.84    -2.162395    2               -0.0000
iter:  10  12:35:54  -6.12  -3.90    -2.162395    2               +0.0000
iter:  11  12:35:54  -8.81  -4.93    -2.162395    1               -0.0000

Converged after 11 iterations.

Dipole moment: (-0.000000, 0.000000, -0.000000) |e|*Ang

Total magnetic moment: -0.000000
Local magnetic moments:
   0 H  0.000000

Energy contributions relative to reference atoms: (reference = -12.490162)

Kinetic:         +1.627010
Potential:       -1.557496
External:        +0.000000
XC:              -2.221352
Entropy (-ST):   -0.000845
Local:           -0.010135
--------------------------
Free energy:     -2.162817
Extrapolated:    -2.162395

Spin contamination: 0.000000 electrons
Fermi level: 3.49897

Warning: Showing only first 2 kpts
                      Up                     Down
 Kpt  Band  Eigenvalues  Occupancy  Eigenvalues  Occupancy
  0     0    -12.33587    0.01172    -12.33587    0.01172

  1     0    -10.94785    0.01562    -10.94785    0.01562


Input parameters:
  convergence: {bands: all}
  eigensolver: {name: cg,
                niter: 5}
  fixdensity: True
  kpts: {npoints: 50,
         path: GHNGP}
  nbands: -4
  symmetry: off

Initialize ...

H-setup:
  name: Hydrogen
  id: d65de229564ff8ea4db303e23b6d1ecf
  Z: 1
  valence: 1
  core: 0
  charge: 0.0
  file: /usr/share/gpaw-setups/H.PBE.gz
  cutoffs: 0.48(comp), 0.85(filt), 0.53(core), lmax=2
  valence states:
                energy  radius
    1s(1.00)    -6.494   0.476
    *s          20.717   0.476
    *p           0.000   0.476

  Using partial waves for H as LCAO basis

Reference energy: -12.490162

Spin-polarized calculation.
Magnetic moment:  0.000000

Occupation numbers:
  Fixed Fermi level
  Fermi-Dirac: width=0.0200 eV

Convergence criteria:
  Maximum total energy change: 0.0005 eV / electron
  Maximum integral of absolute density change: 0.0001 electrons
  Maximum integral of absolute eigenstate change: 4e-08 eV^2
  Maximum number of iterations: 1500

Symmetries present (total): 1

  ( 1  0  0)
  ( 0  1  0)
  ( 0  0  1)

50 k-points
50 k-points in the irreducible part of the Brillouin zone
       k-points in crystal coordinates                weights
   0:     0.00000000    0.00000000    0.00000000          1/50
   1:     0.03571429   -0.03571429    0.03571429          1/50
   2:     0.07142857   -0.07142857    0.07142857          1/50
   3:     0.10714286   -0.10714286    0.10714286          1/50
   4:     0.14285714   -0.14285714    0.14285714          1/50
   5:     0.17857143   -0.17857143    0.17857143          1/50
   6:     0.21428571   -0.21428571    0.21428571          1/50
   7:     0.25000000   -0.25000000    0.25000000          1/50
   8:     0.28571429   -0.28571429    0.28571429          1/50
   9:     0.32142857   -0.32142857    0.32142857          1/50
          ...
  49:     0.25000000    0.25000000    0.25000000          1/50

Wave functions: Plane wave expansion
  Cutoff energy: 400.000 eV
  Number of coefficients (min, max): 38, 58
  Using FFTW library
  Eigensolver: None  MatrixOperator buffer_size: default value or 
                              see value of nblock in input file
Diagonalizer layout: Serial LAPACKOrthonormalizer layout: Serial LAPACK 

CG(niter=5, rtol=3.0e-01) 

No density mixing

Memory estimate:
  Process memory now: 974.55 MiB
  Calculator: 0.78 MiB
    Density: 0.16 MiB
      Arrays: 0.06 MiB
      Localized functions: 0.03 MiB
      Mixer: 0.07 MiB
    Hamiltonian: 0.04 MiB
      Arrays: 0.04 MiB
      XC: 0.00 MiB
      Poisson: 0.00 MiB
      vbar: 0.00 MiB
    Wavefunctions: 0.58 MiB
      Arrays psit_nG: 0.35 MiB
      Eigensolver: 0.01 MiB
      Projections: 0.03 MiB
      Projectors: 0.14 MiB
      Overlap op: 0.00 MiB
      PW-descriptor: 0.04 MiB

Total number of cores used: 1

Number of atoms: 1
Number of atomic orbitals: 1
Number of bands in calculation: 4
Bands to converge: all
Number of valence electrons: 1

... initialized

Initializing position-dependent things.

Creating initial wave functions:
  1 band from LCAO basis set
  3 bands from random numbers

                
                
                
       H        
                
                
                
                

Positions:
   0 H      0.000000    0.000000    0.000000

Unit cell:
           periodic     x           y           z      points  spacing
  1. axis:    yes   -0.906500    0.906500    0.906500     6     0.2137
  2. axis:    yes    0.906500   -0.906500    0.906500     6     0.2137
  3. axis:    yes    0.906500    0.906500   -0.906500     6     0.2137

  Lengths:   1.570104   1.570104   1.570104
  Angles:  109.471221 109.471221 109.471221

Effective grid spacing dv^(1/3) = 0.2398

                     log10-error:    total        iterations:
           time      wfs    density  energy       fermi  poisson  magmom
iter:   1  12:35:58  +4.64           -8.025736    2               -0.0000
iter:   2  12:35:59  +3.61           -8.062162    2               -0.0000
iter:   3  12:36:00  +2.74           -8.062692    2               -0.0000
iter:   4  12:36:01  +1.84           -8.062693    2               -0.0000
iter:   5  12:36:02  +1.05           -8.062693    2               -0.0000
iter:   6  12:36:03  +0.42           -8.062693    2               -0.0000
iter:   7  12:36:04  -0.23           -8.062693    2               -0.0000
iter:   8  12:36:05  -0.71           -8.062693    2               -0.0000
iter:   9  12:36:06  -1.18           -8.062693    2               -0.0000
iter:  10  12:36:07  -1.50           -8.062693    2               -0.0000
iter:  11  12:36:07  -1.71           -8.062693    2               -0.0000
iter:  12  12:36:08  -2.13           -8.062693    2               -0.0000
iter:  13  12:36:09  -3.17           -8.062693    2               -0.0000
iter:  14  12:36:09  -2.42           -8.062693    2               -0.0000
iter:  15  12:36:09  -3.33           -8.062693    2               -0.0000
iter:  16  12:36:10  -2.76           -8.062693    2               -0.0000
iter:  17  12:36:10  -1.89           -8.062693    2               -0.0000
iter:  18  12:36:10  -2.37           -8.062693    2               -0.0000
iter:  19  12:36:11  -4.06           -8.062693    2               -0.0000
iter:  20  12:36:11  -4.41           -8.062693    2               -0.0000
iter:  21  12:36:11  -5.96           -8.062693    2               -0.0000
iter:  22  12:36:12  -5.18           -8.062693    2               -0.0000
iter:  23  12:36:12  -5.19           -8.062693    2               -0.0000
iter:  24  12:36:12  -6.01           -8.062693    2               -0.0000
iter:  25  12:36:12  -3.67           -8.062693    2               -0.0000
iter:  26  12:36:13  -4.32           -8.062693    2               -0.0000
iter:  27  12:36:13  -5.59           -8.062693    2               -0.0000
iter:  28  12:36:13  -6.09           -8.062693    2               -0.0000
iter:  29  12:36:14  -7.18           -8.062693    2               -0.0000
iter:  30  12:36:14  -6.54           -8.062693    2               -0.0000
iter:  31  12:36:14  -6.45           -8.062693    2               -0.0000
iter:  32  12:36:14  -7.27           -8.062693    2               -0.0000
iter:  33  12:36:15  -7.31           -8.062693    2               -0.0000
iter:  34  12:36:15  -7.20           -8.062693    2               -0.0000
iter:  35  12:36:15  -5.62           -8.062693    2               -0.0000
iter:  36  12:36:15  -6.82           -8.062693    2               -0.0000
iter:  37  12:36:16  -7.48           -8.062693    2               -0.0000

Converged after 37 iterations.

Dipole moment: (-0.000000, 0.000000, 0.000000) |e|*Ang

Total magnetic moment: -0.000000
Local magnetic moments:
   0 H  0.000000

Energy contributions relative to reference atoms: (reference = -12.490162)

Kinetic:         -4.273711
Potential:       -1.557496
External:        +0.000000
XC:              -2.221352
Entropy (-ST):   -0.000000
Local:           -0.010135
--------------------------
Free energy:     -8.062693
Extrapolated:    -8.062693

Spin contamination: 0.000000 electrons
Fixed Fermi level: 3.49897

Warning: Showing only first 2 kpts
                      Up                     Down
 Kpt  Band  Eigenvalues  Occupancy  Eigenvalues  Occupancy
  0     0    -13.03010    0.02000    -13.03010    0.02000
  0     1     59.58438    0.00000     59.58438    0.00000

  1     0    -12.80333    0.02000    -12.80333    0.02000
  1     1     58.27435    0.00000     58.27435    0.00000


Timing:                              incl.     excl.
-----------------------------------------------------------
Hamiltonian:                         0.182     0.001   0.0% |
 Atomic:                             0.167     0.002   0.0% |
  XC Correction:                     0.165     0.165   0.6% |
 Calculate atomic Hamiltonians:      0.001     0.001   0.0% |
 Communicate:                        0.000     0.000   0.0% |
 Initialize Hamiltonian:             0.000     0.000   0.0% |
 Poisson:                            0.000     0.000   0.0% |
 XC 3D grid:                         0.013     0.013   0.0% |
LCAO initialization:                 3.616     0.016   0.1% |
 LCAO eigensolver:                   2.164     0.008   0.0% |
  Calculate projections:             0.001     0.001   0.0% |
  DenseAtomicCorrection:             0.013     0.013   0.0% |
  Distribute overlap matrix:         0.003     0.003   0.0% |
  Orbital Layouts:                   0.006     0.006   0.0% |
  Potential matrix:                  0.056     0.056   0.2% |
  Sum over cells:                    2.078     2.078   7.5% |--|
 LCAO to grid:                       0.055     0.055   0.2% |
 Set positions (LCAO WFS):           1.381     0.001   0.0% |
  Basic WFS set positions:           0.002     0.002   0.0% |
  Basis functions set positions:     0.000     0.000   0.0% |
  TCI: Calculate S, T, P:            1.378     1.378   5.0% |-|
PWDescriptor:                        0.010     0.010   0.0% |
Redistribute:                        0.000     0.000   0.0% |
SCF-cycle:                          21.916     5.693  20.6% |-------|
 CG:                                 9.631     8.302  30.1% |-----------|
  CG: orthonormalize:                1.330     0.799   2.9% ||
   CG: overlap:                      0.309     0.309   1.1% |
   CG: overlap2:                     0.222     0.222   0.8% |
 Davidson:                           0.896     0.537   1.9% ||
  calc. matrices:                    0.239     0.239   0.9% |
  diagonalize:                       0.037     0.037   0.1% |
  rotate_psi:                        0.083     0.083   0.3% |
 Density:                            0.117     0.000   0.0% |
  Atomic density matrices:           0.037     0.037   0.1% |
  Mix:                               0.020     0.020   0.1% |
  Multipole moments:                 0.002     0.002   0.0% |
  Pseudo density:                    0.058     0.031   0.1% |
   Symmetrize density:               0.027     0.027   0.1% |
 Hamiltonian:                        0.804     0.004   0.0% |
  Atomic:                            0.741     0.009   0.0% |
   XC Correction:                    0.731     0.731   2.6% ||
  Calculate atomic Hamiltonians:     0.005     0.005   0.0% |
  Communicate:                       0.000     0.000   0.0% |
  Poisson:                           0.001     0.001   0.0% |
  XC 3D grid:                        0.054     0.054   0.2% |
 Orthonormalize:                     0.080     0.009   0.0% |
  Band Layouts:                      0.006     0.002   0.0% |
   Inverse Cholesky:                 0.004     0.004   0.0% |
  calc_s_matrix:                     0.013     0.013   0.0% |
  projections:                       0.040     0.040   0.1% |
  rotate_psi:                        0.011     0.011   0.0% |
 Residuals:                          1.464     1.464   5.3% |-|
 Subspace diag:                      3.231     0.429   1.6% ||
  Band Layouts:                      0.501     0.126   0.5% |
   Diagonalize:                      0.289     0.289   1.0% |
   Distribute results:               0.086     0.086   0.3% |
  calc_h_matrix:                     1.727     1.727   6.3% |--|
  rotate_psi:                        0.573     0.573   2.1% ||
Set symmetry:                        0.110     0.110   0.4% |
Other:                               1.763     1.763   6.4% |--|
-----------------------------------------------------------
Total:                                        27.599 100.0%

Date: Thu Feb 11 12:36:17 2021
element =  H
struct =  bcc
kpts =  (8,8,8)
element =  H
configuration =  1s1
valence =  ['1s']
occupations =  {'1s': 1}
nls =  1s
rNum =  600
lmax =  s
*******************************************
Starting confinement parameter optimization
Adjustable parameters and initial values:
  H_1s.r0 : 1.171630
  H_n.r0 : 1.757445
*******************************************

OPT_VAL: 1.1716301980188955   1.7574452970283432
VCONF:
  H_1s : PowerConfinement(r0=1.171630, s=2.000000)
  H_n : PowerConfinement(r0=1.757445, s=2.000000)
RESIDUAL: 0.0

OPT_VAL: 1.3716301980188954   1.7574452970283432
VCONF:
  H_1s : PowerConfinement(r0=1.371630, s=2.000000)
  H_n : PowerConfinement(r0=1.757445, s=2.000000)
RESIDUAL: 0.0

OPT_VAL: 1.1716301980188955   1.9574452970283431
VCONF:
  H_1s : PowerConfinement(r0=1.171630, s=2.000000)
  H_n : PowerConfinement(r0=1.957445, s=2.000000)
RESIDUAL: 0.0

OPT_VAL: 1.1966301980188954   1.7574452970283432
VCONF:
  H_1s : PowerConfinement(r0=1.196630, s=2.000000)
  H_n : PowerConfinement(r0=1.757445, s=2.000000)
RESIDUAL: 0.0

OPT_VAL: 1.1716301980188955   1.782445297028343
VCONF:
  H_1s : PowerConfinement(r0=1.171630, s=2.000000)
  H_n : PowerConfinement(r0=1.782445, s=2.000000)
RESIDUAL: 0.0

OPT_VAL: 1.1766301980188953   1.7574452970283432
VCONF:
  H_1s : PowerConfinement(r0=1.176630, s=2.000000)
  H_n : PowerConfinement(r0=1.757445, s=2.000000)
RESIDUAL: 0.0

OPT_VAL: 1.1716301980188955   1.762445297028343
VCONF:
  H_1s : PowerConfinement(r0=1.171630, s=2.000000)
  H_n : PowerConfinement(r0=1.762445, s=2.000000)
RESIDUAL: 0.0

*******************************************
Optimization finished after 7 iterations
Adjustable parameters and final values:
  H_1s.r0 : 1.171630
  H_n.r0 : 1.757445
*******************************************

VCONF:
  H_1s : PowerConfinement(r0=1.171630, s=2.000000)
  H_n : PowerConfinement(r0=1.757445, s=2.000000)
