element =  Tl
struct =  hcp
nbands =  -4
path =  GMKGA
kpts =  (8,8,4)

  ___ ___ ___ _ _ _  
 |   |   |_  | | | | 
 | | | | | . | | | | 
 |__ |  _|___|_____|  1.3.1b1
 |___|_|             

User:   inukai@DESKTOP-12SE80T
Date:   Wed Feb  3 06:02:10 2021
Arch:   x86_64
Pid:    7954
Python: 3.6.9
gpaw:   /usr/lib/python3/dist-packages/gpaw
_gpaw:  /usr/lib/python3/dist-packages/_gpaw.cpython-36m-x86_64-linux-gnu.so
ase:    /home/inukai/hotcent/ase-3.19.3/ase (version 3.19.3)
numpy:  /home/inukai/.local/lib/python3.6/site-packages/numpy (version 1.19.5)
scipy:  /home/inukai/.local/lib/python3.6/site-packages/scipy (version 1.5.4)
units:  Angstrom and eV
cores:  1

Input parameters:
  kpts: [8 8 4]
  maxiter: 200
  mixer: {backend: pulay,
          beta: 0.05,
          method: separate,
          nmaxold: 8,
          weight: 100}
  mode: {ecut: 400.0,
         name: pw}
  occupations: {name: fermi-dirac,
                width: 0.02}
  spinpol: False
  xc: PBE

System changes: positions, numbers, cell, pbc, initial_charges, initial_magmoms 

Initialize ...

Tl-setup:
  name: Thallium
  id: 5a3688cb07e09c63f278d9dd157b5100
  Z: 81
  valence: 13
  core: 68
  charge: 0.0
  file: /usr/share/gpaw-setups/Tl.PBE.gz
  cutoffs: 1.19(comp), 2.11(filt), 2.55(core), lmax=2
  valence states:
                energy  radius
    6s(2.00)    -9.493   1.212
    6p(1.00)    -2.379   1.270
    5d(10.00)   -15.517   1.191
    *s          17.718   1.212
    *p          24.832   1.270
    *d          11.695   1.191

  Using partial waves for Tl as LCAO basis

Reference energy: -1100089.960543

Spin-paired calculation

Occupation numbers:
  Fermi-Dirac: width=0.0200 eV

Convergence criteria:
  Maximum total energy change: 0.0005 eV / electron
  Maximum integral of absolute density change: 0.0001 electrons
  Maximum integral of absolute eigenstate change: 4e-08 eV^2
  Maximum number of iterations: 200

Symmetries present (total): 12

  ( 1  1  0)  ( 1  1  0)  ( 1  0  0)  ( 1  0  0)  ( 0  1  0)  ( 0  1  0)
  ( 0 -1  0)  ( 0 -1  0)  ( 0  1  0)  ( 0  1  0)  (-1 -1  0)  (-1 -1  0)
  ( 0  0  1)  ( 0  0 -1)  ( 0  0  1)  ( 0  0 -1)  ( 0  0  1)  ( 0  0 -1)

  ( 0 -1  0)  ( 0 -1  0)  (-1  0  0)  (-1  0  0)  (-1 -1  0)  (-1 -1  0)
  (-1  0  0)  (-1  0  0)  ( 1  1  0)  ( 1  1  0)  ( 1  0  0)  ( 1  0  0)
  ( 0  0  1)  ( 0  0 -1)  ( 0  0  1)  ( 0  0 -1)  ( 0  0  1)  ( 0  0 -1)
Note: your k-points are not as symmetric as your crystal!

256 k-points: 8 x 8 x 4 Monkhorst-Pack grid
40 k-points in the irreducible part of the Brillouin zone
       k-points in crystal coordinates                weights
   0:     0.06250000   -0.06250000    0.12500000          4/256
   1:     0.06250000   -0.06250000    0.37500000          4/256
   2:     0.06250000    0.06250000    0.12500000          4/256
   3:     0.06250000    0.06250000    0.37500000          4/256
   4:     0.18750000   -0.18750000    0.12500000          4/256
   5:     0.18750000   -0.18750000    0.37500000          4/256
   6:     0.18750000   -0.06250000    0.12500000          8/256
   7:     0.18750000   -0.06250000    0.37500000          8/256
   8:     0.18750000    0.06250000    0.12500000          8/256
   9:     0.18750000    0.06250000    0.37500000          8/256
          ...
  39:     0.43750000    0.43750000    0.37500000          4/256

Wave functions: Plane wave expansion
  Cutoff energy: 400.000 eV
  Number of coefficients (min, max): 1032, 1054
  Using FFTW library
  Eigensolver: None  MatrixOperator buffer_size: default value or 
                              see value of nblock in input file
Diagonalizer layout: Serial LAPACKOrthonormalizer layout: Serial LAPACK 

Davidson(niter=1, smin=None, normalize=True) 

Densities:
  Coarse grid: 14*14*27 grid
  Fine grid: 28*28*54 grid
  Total Charge: 0.000000 

Density mixing:
  Method: separate
  Backend: pulay
  Linear mixing parameter: 0.05
  Mixing with 8 old densities
  Damping of long wave oscillations: 100 

Hamiltonian:
  XC and Coulomb potentials evaluated on a 28*28*54 grid
  Using the PBE Exchange-Correlation functional
 

Memory estimate:
  Process memory now: 924.95 MiB
  Calculator: 21.27 MiB
    Density: 2.43 MiB
      Arrays: 1.05 MiB
      Localized functions: 0.74 MiB
      Mixer: 0.65 MiB
    Hamiltonian: 0.70 MiB
      Arrays: 0.69 MiB
      XC: 0.00 MiB
      Poisson: 0.00 MiB
      vbar: 0.01 MiB
    Wavefunctions: 18.14 MiB
      Arrays psit_nG: 11.58 MiB
      Eigensolver: 0.42 MiB
      Projections: 0.40 MiB
      Projectors: 4.77 MiB
      Overlap op: 0.29 MiB
      PW-descriptor: 0.68 MiB

Total number of cores used: 1

Number of atoms: 2
Number of atomic orbitals: 18
Number of bands in calculation: 18
Bands to converge: occupied states only
Number of valence electrons: 26

... initialized

Initializing position-dependent things.

Density initialized from atomic densities
Creating initial wave functions:
  18 bands from LCAO basis set

                  
                  
                  
                  
         Tl       
                  
                  
                  
       Tl         
                  
                  
                  
                  

Positions:
   0 Tl     0.000000    0.000000    0.000000
   1 Tl     0.000000    1.997632    2.766270

Unit cell:
           periodic     x           y           z      points  spacing
  1. axis:    yes    3.460000    0.000000    0.000000    14     0.2140
  2. axis:    yes   -1.730000    2.996448    0.000000    14     0.2140
  3. axis:    yes    0.000000    0.000000    5.532540    27     0.2049

  Lengths:   3.460000   3.460000   5.532540
  Angles:   90.000000  90.000000 120.000000

Effective grid spacing dv^(1/3) = 0.2213

                     log10-error:    total        iterations:
           time      wfs    density  energy       fermi  poisson
iter:   1  06:02:15  +1.03   +inf    -4.801349    3             
iter:   2  06:02:17  -0.57   +inf    -4.831061    3             
iter:   3  06:02:19  -1.56   +inf    -4.835417    3             
iter:   4  06:02:21  -1.91  -1.66    -4.820405    3             
iter:   5  06:02:24  -0.65  -1.69    -4.751257    23            
iter:   6  06:02:26  -1.39  -2.14    -4.778023    5             
iter:   7  06:02:28  -0.77  -2.19    -4.750782    4             
iter:   8  06:02:31  -2.66  -2.68    -4.750876    3             
iter:   9  06:02:33  -3.52  -3.08    -4.750875    2             
iter:  10  06:02:35  -3.36  -3.20    -4.751041    3             
iter:  11  06:02:38  -4.55  -3.00    -4.751068    2             
iter:  12  06:02:40  -2.19  -3.00    -4.751806    4             
iter:  13  06:02:43  -1.89  -2.80    -4.751350    4             
iter:  14  06:02:45  -3.10  -2.84    -4.751038    3             
iter:  15  06:02:47  -3.12  -3.14    -4.750885    3             
iter:  16  06:02:50  -3.69  -3.89    -4.750896    3             
iter:  17  06:02:52  -4.29  -3.56    -4.750882    3             
iter:  18  06:02:55  -5.63  -3.94    -4.750884    2             
iter:  19  06:02:57  -6.61  -4.27    -4.750884    2             
iter:  20  06:03:00  -7.11  -4.24    -4.750884    2             
iter:  21  06:03:02  -7.26  -4.51    -4.750884    2             
iter:  22  06:03:04  -6.66  -4.45    -4.750884    2             
iter:  23  06:03:07  -6.93  -4.62    -4.750884    1             
iter:  24  06:03:09  -7.82  -5.03    -4.750884    2             

Converged after 24 iterations.

Dipole moment: (-2.746021, 1.585416, 0.000000) |e|*Ang

Energy contributions relative to reference atoms: (reference = -1100089.960543)

Kinetic:        +12.874495
Potential:      -11.912465
External:        +0.000000
XC:              -6.197122
Entropy (-ST):   -0.000960
Local:           +0.484688
--------------------------
Free energy:     -4.751364
Extrapolated:    -4.750884

Fermi level: 7.13623

Warning: Showing only first 2 kpts
 Kpt  Band  Eigenvalues  Occupancy
  0    11      1.57935    0.03125
  0    12      5.29412    0.03125
  0    13     14.29464    0.00000
  0    14     14.84882    0.00000

  1    11     -0.43173    0.03125
  1    12      8.64027    0.00000
  1    13     12.69597    0.00000
  1    14     14.87332    0.00000


Input parameters:
  convergence: {bands: all}
  eigensolver: {name: cg,
                niter: 5}
  fixdensity: True
  kpts: {npoints: 50,
         path: GMKGA}
  nbands: -4
  symmetry: off

Initialize ...

Tl-setup:
  name: Thallium
  id: 5a3688cb07e09c63f278d9dd157b5100
  Z: 81
  valence: 13
  core: 68
  charge: 0.0
  file: /usr/share/gpaw-setups/Tl.PBE.gz
  cutoffs: 1.19(comp), 2.11(filt), 2.55(core), lmax=2
  valence states:
                energy  radius
    6s(2.00)    -9.493   1.212
    6p(1.00)    -2.379   1.270
    5d(10.00)   -15.517   1.191
    *s          17.718   1.212
    *p          24.832   1.270
    *d          11.695   1.191

  Using partial waves for Tl as LCAO basis

Reference energy: -1100089.960543

Spin-paired calculation

Occupation numbers:
  Fixed Fermi level
  Fermi-Dirac: width=0.0200 eV

Convergence criteria:
  Maximum total energy change: 0.0005 eV / electron
  Maximum integral of absolute density change: 0.0001 electrons
  Maximum integral of absolute eigenstate change: 4e-08 eV^2
  Maximum number of iterations: 200

Symmetries present (total): 1

  ( 1  0  0)
  ( 0  1  0)
  ( 0  0  1)

50 k-points
50 k-points in the irreducible part of the Brillouin zone
       k-points in crystal coordinates                weights
   0:     0.00000000    0.00000000    0.00000000          1/50
   1:     0.03571429    0.00000000    0.00000000          1/50
   2:     0.07142857    0.00000000    0.00000000          1/50
   3:     0.10714286    0.00000000    0.00000000          1/50
   4:     0.14285714    0.00000000    0.00000000          1/50
   5:     0.17857143    0.00000000    0.00000000          1/50
   6:     0.21428571    0.00000000    0.00000000          1/50
   7:     0.25000000    0.00000000    0.00000000          1/50
   8:     0.28571429    0.00000000    0.00000000          1/50
   9:     0.32142857    0.00000000    0.00000000          1/50
          ...
  49:     0.00000000    0.00000000    0.50000000          1/50

Wave functions: Plane wave expansion
  Cutoff energy: 400.000 eV
  Number of coefficients (min, max): 1026, 1087
  Using FFTW library
  Eigensolver: None  MatrixOperator buffer_size: default value or 
                              see value of nblock in input file
Diagonalizer layout: Serial LAPACKOrthonormalizer layout: Serial LAPACK 

CG(niter=5, rtol=3.0e-01) 

No density mixing

Memory estimate:
  Process memory now: 986.26 MiB
  Calculator: 25.13 MiB
    Density: 2.43 MiB
      Arrays: 1.05 MiB
      Localized functions: 0.74 MiB
      Mixer: 0.65 MiB
    Hamiltonian: 0.70 MiB
      Arrays: 0.69 MiB
      XC: 0.00 MiB
      Poisson: 0.00 MiB
      vbar: 0.01 MiB
    Wavefunctions: 21.99 MiB
      Arrays psit_nG: 14.10 MiB
      Eigensolver: 0.37 MiB
      Projections: 0.47 MiB
      Projectors: 5.98 MiB
      Overlap op: 0.29 MiB
      PW-descriptor: 0.80 MiB

Total number of cores used: 1

Number of atoms: 2
Number of atomic orbitals: 18
Number of bands in calculation: 17
Bands to converge: all
Number of valence electrons: 26

... initialized

Initializing position-dependent things.

Creating initial wave functions:
  17 bands from LCAO basis set

                  
                  
                  
                  
         Tl       
                  
                  
                  
       Tl         
                  
                  
                  
                  

Positions:
   0 Tl     0.000000    0.000000    0.000000
   1 Tl     0.000000    1.997632    2.766270

Unit cell:
           periodic     x           y           z      points  spacing
  1. axis:    yes    3.460000    0.000000    0.000000    14     0.2140
  2. axis:    yes   -1.730000    2.996448    0.000000    14     0.2140
  3. axis:    yes    0.000000    0.000000    5.532540    27     0.2049

  Lengths:   3.460000   3.460000   5.532540
  Angles:   90.000000  90.000000 120.000000

Effective grid spacing dv^(1/3) = 0.2213

                     log10-error:    total        iterations:
           time      wfs    density  energy       fermi  poisson
iter:   1  06:03:19  +0.89           -7.188429    6             
iter:   2  06:03:26  -0.04           -7.212857    5             
iter:   3  06:03:35  -1.09           -7.217829    5             
iter:   4  06:03:44  -2.05           -7.218743    5             
iter:   5  06:03:53  -3.05           -7.218848    5             
iter:   6  06:04:02  -3.90           -7.218864    5             
iter:   7  06:04:12  -1.75           -7.218867    5             
iter:   8  06:04:21  -2.53           -7.218867    5             
iter:   9  06:04:28  -3.46           -7.218867    5             
iter:  10  06:04:33  -4.52           -7.218867    5             
iter:  11  06:04:36  -5.11           -7.218867    5             
iter:  12  06:04:37  -5.42           -7.218867    5             
iter:  13  06:04:38  -6.69           -7.218867    5             
iter:  14  06:04:39  -7.68           -7.218867    5             

Converged after 14 iterations.

Dipole moment: (-2.746021, 1.585416, 0.000000) |e|*Ang

Energy contributions relative to reference atoms: (reference = -1100089.960543)

Kinetic:        +10.406843
Potential:      -11.912494
External:        +0.000000
XC:              -6.197144
Entropy (-ST):   -0.001540
Local:           +0.484698
--------------------------
Free energy:     -7.219638
Extrapolated:    -7.218867

Fixed Fermi level: 7.13623

Warning: Showing only first 2 kpts
 Kpt  Band  Eigenvalues  Occupancy
  0    11      2.17736    0.04000
  0    12      4.38480    0.04000
  0    13     15.14049    0.00000
  0    14     15.14253    0.00000

  1    11      2.19252    0.04000
  1    12      4.41646    0.04000
  1    13     14.79726    0.00000
  1    14     15.00671    0.00000


Timing:                              incl.     excl.
-----------------------------------------------------------
Hamiltonian:                         1.139     0.002   0.0% |
 Atomic:                             0.924     0.004   0.0% |
  XC Correction:                     0.920     0.920   0.6% |
 Calculate atomic Hamiltonians:      0.032     0.032   0.0% |
 Communicate:                        0.000     0.000   0.0% |
 Initialize Hamiltonian:             0.000     0.000   0.0% |
 Poisson:                            0.001     0.001   0.0% |
 XC 3D grid:                         0.180     0.180   0.1% |
LCAO initialization:                 3.191     0.300   0.2% |
 LCAO eigensolver:                   0.798     0.009   0.0% |
  Calculate projections:             0.005     0.005   0.0% |
  DenseAtomicCorrection:             0.024     0.024   0.0% |
  Distribute overlap matrix:         0.004     0.004   0.0% |
  Orbital Layouts:                   0.096     0.096   0.1% |
  Potential matrix:                  0.179     0.179   0.1% |
  Sum over cells:                    0.482     0.482   0.3% |
 LCAO to grid:                       1.315     1.315   0.9% |
 Set positions (LCAO WFS):           0.778     0.002   0.0% |
  Basic WFS set positions:           0.003     0.003   0.0% |
  Basis functions set positions:     0.000     0.000   0.0% |
  TCI: Calculate S, T, P:            0.773     0.773   0.5% |
PWDescriptor:                        0.044     0.044   0.0% |
Redistribute:                        0.000     0.000   0.0% |
SCF-cycle:                         142.577     1.868   1.2% |
 CG:                                76.749    70.790  47.3% |------------------|
  CG: orthonormalize:                5.959     3.021   2.0% ||
   CG: overlap:                      1.950     1.950   1.3% ||
   CG: overlap2:                     0.988     0.988   0.7% |
 Davidson:                          27.008    13.032   8.7% |--|
  calc. matrices:                   10.378    10.378   6.9% |--|
  diagonalize:                       2.963     2.963   2.0% ||
  rotate_psi:                        0.635     0.635   0.4% |
 Density:                            5.280     0.001   0.0% |
  Atomic density matrices:           0.047     0.047   0.0% |
  Mix:                               0.400     0.400   0.3% |
  Multipole moments:                 0.003     0.003   0.0% |
  Pseudo density:                    4.828     4.732   3.2% ||
   Symmetrize density:               0.096     0.096   0.1% |
 Hamiltonian:                       11.666     0.019   0.0% |
  Atomic:                            9.943     0.040   0.0% |
   XC Correction:                    9.903     9.903   6.6% |--|
  Calculate atomic Hamiltonians:     0.297     0.297   0.2% |
  Communicate:                       0.000     0.000   0.0% |
  Poisson:                           0.010     0.010   0.0% |
  XC 3D grid:                        1.397     1.397   0.9% |
 Orthonormalize:                     0.293     0.008   0.0% |
  Band Layouts:                      0.009     0.002   0.0% |
   Inverse Cholesky:                 0.007     0.007   0.0% |
  calc_s_matrix:                     0.039     0.039   0.0% |
  projections:                       0.207     0.207   0.1% |
  rotate_psi:                        0.030     0.030   0.0% |
 Residuals:                          1.890     1.890   1.3% ||
 Subspace diag:                     17.823     0.244   0.2% |
  Band Layouts:                      1.129     0.068   0.0% |
   Diagonalize:                      1.011     1.011   0.7% |
   Distribute results:               0.051     0.051   0.0% |
  calc_h_matrix:                    15.612    15.612  10.4% |---|
  rotate_psi:                        0.838     0.838   0.6% |
Set symmetry:                        0.031     0.031   0.0% |
Other:                               2.534     2.534   1.7% ||
-----------------------------------------------------------
Total:                                       149.515 100.0%

Date: Wed Feb  3 06:04:40 2021
element =  Tl
struct =  hcp
kpts =  (8,8,4)
element =  Tl
configuration =  [Xe] 5d10 6s2 6p1 6d0
valence =  ['6s', '6p', '6d']
occupations =  {'6s': 2, '6p': 1, '6d': 0}
nls =  6p
rNum =  600
lmax =  f
*******************************************
Starting confinement parameter optimization
Adjustable parameters and initial values:
  Tl_6d.r0 : 5.480206
  Tl_6p.r0 : 5.480206
  Tl_6s.r0 : 5.480206
  Tl_n.r0 : 8.220309
*******************************************

OPT_VAL: 5.480205764927092   5.480205764927092   5.480205764927092   8.220308647390638
VCONF:
  Tl_6d : PowerConfinement(r0=5.480206, s=2.000000)
  Tl_6p : PowerConfinement(r0=5.480206, s=2.000000)
  Tl_6s : PowerConfinement(r0=5.480206, s=2.000000)
  Tl_n : PowerConfinement(r0=8.220309, s=2.000000)
RESIDUAL: 0.0

OPT_VAL: 5.680205764927092   5.480205764927092   5.480205764927092   8.220308647390638
VCONF:
  Tl_6d : PowerConfinement(r0=5.680206, s=2.000000)
  Tl_6p : PowerConfinement(r0=5.480206, s=2.000000)
  Tl_6s : PowerConfinement(r0=5.480206, s=2.000000)
  Tl_n : PowerConfinement(r0=8.220309, s=2.000000)
RESIDUAL: 0.0

OPT_VAL: 5.480205764927092   5.680205764927092   5.480205764927092   8.220308647390638
VCONF:
  Tl_6d : PowerConfinement(r0=5.480206, s=2.000000)
  Tl_6p : PowerConfinement(r0=5.680206, s=2.000000)
  Tl_6s : PowerConfinement(r0=5.480206, s=2.000000)
  Tl_n : PowerConfinement(r0=8.220309, s=2.000000)
RESIDUAL: 0.0

OPT_VAL: 5.480205764927092   5.480205764927092   5.680205764927092   8.220308647390638
VCONF:
  Tl_6d : PowerConfinement(r0=5.480206, s=2.000000)
  Tl_6p : PowerConfinement(r0=5.480206, s=2.000000)
  Tl_6s : PowerConfinement(r0=5.680206, s=2.000000)
  Tl_n : PowerConfinement(r0=8.220309, s=2.000000)
RESIDUAL: 0.0

OPT_VAL: 5.480205764927092   5.480205764927092   5.480205764927092   8.420308647390637
VCONF:
  Tl_6d : PowerConfinement(r0=5.480206, s=2.000000)
  Tl_6p : PowerConfinement(r0=5.480206, s=2.000000)
  Tl_6s : PowerConfinement(r0=5.480206, s=2.000000)
  Tl_n : PowerConfinement(r0=8.420309, s=2.000000)
RESIDUAL: 0.0

OPT_VAL: 5.5052057649270925   5.480205764927092   5.480205764927092   8.220308647390638
VCONF:
  Tl_6d : PowerConfinement(r0=5.505206, s=2.000000)
  Tl_6p : PowerConfinement(r0=5.480206, s=2.000000)
  Tl_6s : PowerConfinement(r0=5.480206, s=2.000000)
  Tl_n : PowerConfinement(r0=8.220309, s=2.000000)
RESIDUAL: 0.0

OPT_VAL: 5.480205764927092   5.5052057649270925   5.480205764927092   8.220308647390638
VCONF:
  Tl_6d : PowerConfinement(r0=5.480206, s=2.000000)
  Tl_6p : PowerConfinement(r0=5.505206, s=2.000000)
  Tl_6s : PowerConfinement(r0=5.480206, s=2.000000)
  Tl_n : PowerConfinement(r0=8.220309, s=2.000000)
RESIDUAL: 0.0

OPT_VAL: 5.480205764927092   5.480205764927092   5.5052057649270925   8.220308647390638
VCONF:
  Tl_6d : PowerConfinement(r0=5.480206, s=2.000000)
  Tl_6p : PowerConfinement(r0=5.480206, s=2.000000)
  Tl_6s : PowerConfinement(r0=5.505206, s=2.000000)
  Tl_n : PowerConfinement(r0=8.220309, s=2.000000)
RESIDUAL: 0.0

OPT_VAL: 5.480205764927092   5.480205764927092   5.480205764927092   8.245308647390639
VCONF:
  Tl_6d : PowerConfinement(r0=5.480206, s=2.000000)
  Tl_6p : PowerConfinement(r0=5.480206, s=2.000000)
  Tl_6s : PowerConfinement(r0=5.480206, s=2.000000)
  Tl_n : PowerConfinement(r0=8.245309, s=2.000000)
RESIDUAL: 0.0

OPT_VAL: 5.485205764927092   5.480205764927092   5.480205764927092   8.220308647390638
VCONF:
  Tl_6d : PowerConfinement(r0=5.485206, s=2.000000)
  Tl_6p : PowerConfinement(r0=5.480206, s=2.000000)
  Tl_6s : PowerConfinement(r0=5.480206, s=2.000000)
  Tl_n : PowerConfinement(r0=8.220309, s=2.000000)
RESIDUAL: 0.0

OPT_VAL: 5.480205764927092   5.485205764927092   5.480205764927092   8.220308647390638
VCONF:
  Tl_6d : PowerConfinement(r0=5.480206, s=2.000000)
  Tl_6p : PowerConfinement(r0=5.485206, s=2.000000)
  Tl_6s : PowerConfinement(r0=5.480206, s=2.000000)
  Tl_n : PowerConfinement(r0=8.220309, s=2.000000)
RESIDUAL: 0.0

OPT_VAL: 5.480205764927092   5.480205764927092   5.485205764927092   8.220308647390638
VCONF:
  Tl_6d : PowerConfinement(r0=5.480206, s=2.000000)
  Tl_6p : PowerConfinement(r0=5.480206, s=2.000000)
  Tl_6s : PowerConfinement(r0=5.485206, s=2.000000)
  Tl_n : PowerConfinement(r0=8.220309, s=2.000000)
RESIDUAL: 0.0

OPT_VAL: 5.480205764927092   5.480205764927092   5.480205764927092   8.225308647390639
VCONF:
  Tl_6d : PowerConfinement(r0=5.480206, s=2.000000)
  Tl_6p : PowerConfinement(r0=5.480206, s=2.000000)
  Tl_6s : PowerConfinement(r0=5.480206, s=2.000000)
  Tl_n : PowerConfinement(r0=8.225309, s=2.000000)
RESIDUAL: 0.0

*******************************************
Optimization finished after 13 iterations
Adjustable parameters and final values:
  Tl_6d.r0 : 5.480206
  Tl_6p.r0 : 5.480206
  Tl_6s.r0 : 5.480206
  Tl_n.r0 : 8.220309
*******************************************

VCONF:
  Tl_6d : PowerConfinement(r0=5.480206, s=2.000000)
  Tl_6p : PowerConfinement(r0=5.480206, s=2.000000)
  Tl_6s : PowerConfinement(r0=5.480206, s=2.000000)
  Tl_n : PowerConfinement(r0=8.220309, s=2.000000)
