
     Program PWSCF v.6.0 (svn rev. 13079) starts on 26Feb2021 at 18: 4:43 

     This program is part of the open-source Quantum ESPRESSO suite
     for quantum simulation of materials; please cite
         "P. Giannozzi et al., J. Phys.:Condens. Matter 21 395502 (2009);
          URL http://www.quantum-espresso.org", 
     in publications or presentations arising from this work. More details at
     http://www.quantum-espresso.org/quote

     Parallel version (MPI), running on     1 processors
     Reading input from espresso.pwi
Warning: card &IONS ignored
Warning: card / ignored
Warning: card &CELL ignored
Warning: card / ignored

     Current dimensions of program PWSCF are:
     Max number of different atomic species (ntypx) = 10
     Max number of k-points (npk) =  40000
     Max angular momentum in pseudopotentials (lmaxx) =  3
     Message from routine input:
     WARNING: "startingwfc" set to atomic+random may spoil restart

     Atomic positions and unit cell read from directory:
     ./pwscf.save/


     IMPORTANT: XC functional enforced from input :
     Exchange-correlation      = PBE ( 1  4  3  4 0 0)
     Any further DFT definition will be discarded
     Please, verify this is what you really want


     Subspace diagonalization in iterative solution of the eigenvalue problem:
     a serial algorithm will be used


     G-vector sticks info
     --------------------
     sticks:   dense  smooth     PW     G-vecs:    dense   smooth      PW
     Sum        1003     805    241                33897    24249    3961



     bravais-lattice index     =            0
     lattice parameter (alat)  =       8.5187  a.u.
     unit-cell volume          =     708.2225 (a.u.)^3
     number of atoms/cell      =            3
     number of atomic types    =            1
     number of electrons       =        18.00
     number of Kohn-Sham states=           13
     kinetic-energy cutoff     =      40.0000  Ry
     charge density cutoff     =     200.0000  Ry
     Exchange-correlation      = PBE ( 1  4  3  4 0 0)

     celldm(1)=   8.518655  celldm(2)=   0.000000  celldm(3)=   0.000000
     celldm(4)=   0.000000  celldm(5)=   0.000000  celldm(6)=   0.000000

     crystal axes: (cart. coord. in units of alat)
               a(1) = (   1.000000   0.000000   0.000000 )  
               a(2) = (  -0.500000   0.866025   0.000000 )  
               a(3) = (   0.000000   0.000000   1.322897 )  

     reciprocal axes: (cart. coord. in units 2 pi/alat)
               b(1) = (  1.000000  0.577350 -0.000000 )  
               b(2) = (  0.000000  1.154701  0.000000 )  
               b(3) = (  0.000000 -0.000000  0.755917 )  


     PseudoPot. # 1 for Te read from file:
     /home/inukai/tango/tests/1element/qe_fit_v3_Te/../pseudo/te_pbe_v1.uspp.F.UPF
     MD5 check sum: c319670d6894cc26e93307826a071b75
     Pseudo is Ultrasoft + core correction, Zval =  6.0
     Generated by new atomic code, or converted to UPF format
     Using radial grid of  891 points,  5 beta functions with: 
                l(1) =   0
                l(2) =   0
                l(3) =   1
                l(4) =   1
                l(5) =   2
     Q(r) pseudized with  6 coefficients,  rinner =    1.800   1.800   1.800
                                                       1.800   1.800

     atomic species   valence    mass     pseudopotential
        Te             6.00   127.60000     Te( 1.00)

      6 Sym. Ops. (no inversion) found ( 4 have fractional translation)


                                    s                        frac. trans.

      isym =  1     identity                                     

 cryst.   s( 1) = (     1          0          0      )
                  (     0          1          0      )
                  (     0          0          1      )

 cart.    s( 1) = (  1.0000000  0.0000000  0.0000000 )
                  (  0.0000000  1.0000000  0.0000000 )
                  (  0.0000000  0.0000000  1.0000000 )


      isym =  2     180 deg rotation - cart. axis [1,0,0]        

 cryst.   s( 2) = (     1          0          0      )    f =(  0.0000000 )
                  (    -1         -1          0      )       (  0.0000000 )
                  (     0          0         -1      )       (  0.3333333 )

 cart.    s( 2) = (  1.0000000  0.0000000  0.0000000 )    f =(  0.0000000 )
                  (  0.0000000 -1.0000000  0.0000000 )       (  0.0000000 )
                  (  0.0000000  0.0000000 -1.0000000 )       (  0.4409656 )


      isym =  3     120 deg rotation - cryst. axis [0,0,1]       

 cryst.   s( 3) = (     0          1          0      )    f =(  0.0000000 )
                  (    -1         -1          0      )       (  0.0000000 )
                  (     0          0          1      )       ( -0.3333333 )

 cart.    s( 3) = ( -0.5000000 -0.8660254  0.0000000 )    f =(  0.0000000 )
                  (  0.8660254 -0.5000000  0.0000000 )       (  0.0000000 )
                  (  0.0000000  0.0000000  1.0000000 )       ( -0.4409656 )


      isym =  4     120 deg rotation - cryst. axis [0,0,-1]      

 cryst.   s( 4) = (    -1         -1          0      )    f =(  0.0000000 )
                  (     1          0          0      )       (  0.0000000 )
                  (     0          0          1      )       (  0.3333333 )

 cart.    s( 4) = ( -0.5000000  0.8660254  0.0000000 )    f =(  0.0000000 )
                  ( -0.8660254 -0.5000000  0.0000000 )       (  0.0000000 )
                  (  0.0000000  0.0000000  1.0000000 )       (  0.4409656 )


      isym =  5     180 deg rotation - cryst. axis [0,1,0]       

 cryst.   s( 5) = (    -1         -1          0      )    f =(  0.0000000 )
                  (     0          1          0      )       (  0.0000000 )
                  (     0          0         -1      )       ( -0.3333333 )

 cart.    s( 5) = ( -0.5000000 -0.8660254  0.0000000 )    f =(  0.0000000 )
                  ( -0.8660254  0.5000000  0.0000000 )       (  0.0000000 )
                  (  0.0000000  0.0000000 -1.0000000 )       ( -0.4409656 )


      isym =  6     180 deg rotation - cryst. axis [1,1,0]       

 cryst.   s( 6) = (     0          1          0      )
                  (     1          0          0      )
                  (     0          0         -1      )

 cart.    s( 6) = ( -0.5000000  0.8660254  0.0000000 )
                  (  0.8660254  0.5000000  0.0000000 )
                  (  0.0000000  0.0000000 -1.0000000 )


   Cartesian axes

     site n.     atom                  positions (alat units)
         1           Te  tau(   1) = (   0.2696600   0.0000000   0.4409656  )
         2           Te  tau(   2) = (  -0.1348300   0.2335324   0.8819313  )
         3           Te  tau(   3) = (   0.3651700   0.6324930   1.3228969  )

   Crystallographic axes

     site n.     atom                  positions (cryst. coord.)
         1           Te  tau(   1) = (  0.2696600  0.0000000  0.3333333  )
         2           Te  tau(   2) = (  0.0000000  0.2696600  0.6666667  )
         3           Te  tau(   3) = (  0.7303400  0.7303400  1.0000000  )

     number of k points=    50  gaussian smearing, width (Ry)=  0.0010
                       cart. coord. in units 2pi/alat
        k(    1) = (   0.0000000   0.0000000   0.0000000), wk =   0.0400000
        k(    2) = (   0.0833333   0.0481125   0.0000000), wk =   0.0400000
        k(    3) = (   0.1666667   0.0962250   0.0000000), wk =   0.0400000
        k(    4) = (   0.2500000   0.1443376   0.0000000), wk =   0.0400000
        k(    5) = (   0.3333333   0.1924501   0.0000000), wk =   0.0400000
        k(    6) = (   0.4166667   0.2405626   0.0000000), wk =   0.0400000
        k(    7) = (   0.5000000   0.2886751   0.0000000), wk =   0.0400000
        k(    8) = (   0.4444444   0.3849002   0.0000000), wk =   0.0400000
        k(    9) = (   0.3888889   0.4811252   0.0000000), wk =   0.0400000
        k(   10) = (   0.3333333   0.5773503   0.0000000), wk =   0.0400000
        k(   11) = (   0.2857143   0.4948717   0.0000000), wk =   0.0400000
        k(   12) = (   0.2380952   0.4123930   0.0000000), wk =   0.0400000
        k(   13) = (   0.1904762   0.3299144   0.0000000), wk =   0.0400000
        k(   14) = (   0.1428571   0.2474358   0.0000000), wk =   0.0400000
        k(   15) = (   0.0952381   0.1649572   0.0000000), wk =   0.0400000
        k(   16) = (   0.0476190   0.0824786   0.0000000), wk =   0.0400000
        k(   17) = (   0.0000000   0.0000000   0.0000000), wk =   0.0400000
        k(   18) = (   0.0000000   0.0000000   0.0944896), wk =   0.0400000
        k(   19) = (   0.0000000   0.0000000   0.1889792), wk =   0.0400000
        k(   20) = (   0.0000000   0.0000000   0.2834688), wk =   0.0400000
        k(   21) = (   0.0000000   0.0000000   0.3779584), wk =   0.0400000
        k(   22) = (   0.0833333   0.0481125   0.3779584), wk =   0.0400000
        k(   23) = (   0.1666667   0.0962250   0.3779584), wk =   0.0400000
        k(   24) = (   0.2500000   0.1443376   0.3779584), wk =   0.0400000
        k(   25) = (   0.3333333   0.1924501   0.3779584), wk =   0.0400000
        k(   26) = (   0.4166667   0.2405626   0.3779584), wk =   0.0400000
        k(   27) = (   0.5000000   0.2886751   0.3779584), wk =   0.0400000
        k(   28) = (   0.4583333   0.3608439   0.3779584), wk =   0.0400000
        k(   29) = (   0.4166667   0.4330127   0.3779584), wk =   0.0400000
        k(   30) = (   0.3750000   0.5051815   0.3779584), wk =   0.0400000
        k(   31) = (   0.3333333   0.5773503   0.3779584), wk =   0.0400000
        k(   32) = (   0.2916667   0.5051815   0.3779584), wk =   0.0400000
        k(   33) = (   0.2500000   0.4330127   0.3779584), wk =   0.0400000
        k(   34) = (   0.2083333   0.3608439   0.3779584), wk =   0.0400000
        k(   35) = (   0.1666667   0.2886751   0.3779584), wk =   0.0400000
        k(   36) = (   0.1250000   0.2165064   0.3779584), wk =   0.0400000
        k(   37) = (   0.0833333   0.1443376   0.3779584), wk =   0.0400000
        k(   38) = (   0.0416667   0.0721688   0.3779584), wk =   0.0400000
        k(   39) = (   0.0000000   0.0000000   0.3779584), wk =   0.0400000
        k(   40) = (   0.5000000   0.2886751   0.3779584), wk =   0.0400000
        k(   41) = (   0.5000000   0.2886751   0.2834688), wk =   0.0400000
        k(   42) = (   0.5000000   0.2886751   0.1889792), wk =   0.0400000
        k(   43) = (   0.5000000   0.2886751   0.0944896), wk =   0.0400000
        k(   44) = (   0.5000000   0.2886751   0.0000000), wk =   0.0400000
        k(   45) = (   0.3333333   0.5773503   0.0000000), wk =   0.0400000
        k(   46) = (   0.3333333   0.5773503   0.0755917), wk =   0.0400000
        k(   47) = (   0.3333333   0.5773503   0.1511834), wk =   0.0400000
        k(   48) = (   0.3333333   0.5773503   0.2267750), wk =   0.0400000
        k(   49) = (   0.3333333   0.5773503   0.3023667), wk =   0.0400000
        k(   50) = (   0.3333333   0.5773503   0.3779584), wk =   0.0400000

                       cryst. coord.
        k(    1) = (   0.0000000   0.0000000   0.0000000), wk =   0.0400000
        k(    2) = (   0.0833333   0.0000000   0.0000000), wk =   0.0400000
        k(    3) = (   0.1666667   0.0000000   0.0000000), wk =   0.0400000
        k(    4) = (   0.2500000   0.0000000   0.0000000), wk =   0.0400000
        k(    5) = (   0.3333333   0.0000000   0.0000000), wk =   0.0400000
        k(    6) = (   0.4166667  -0.0000000   0.0000000), wk =   0.0400000
        k(    7) = (   0.5000000   0.0000000   0.0000000), wk =   0.0400000
        k(    8) = (   0.4444444   0.1111111   0.0000000), wk =   0.0400000
        k(    9) = (   0.3888889   0.2222222   0.0000000), wk =   0.0400000
        k(   10) = (   0.3333333   0.3333333   0.0000000), wk =   0.0400000
        k(   11) = (   0.2857143   0.2857143   0.0000000), wk =   0.0400000
        k(   12) = (   0.2380952   0.2380952   0.0000000), wk =   0.0400000
        k(   13) = (   0.1904762   0.1904762   0.0000000), wk =   0.0400000
        k(   14) = (   0.1428571   0.1428571   0.0000000), wk =   0.0400000
        k(   15) = (   0.0952381   0.0952381   0.0000000), wk =   0.0400000
        k(   16) = (   0.0476190   0.0476190   0.0000000), wk =   0.0400000
        k(   17) = (   0.0000000   0.0000000   0.0000000), wk =   0.0400000
        k(   18) = (   0.0000000   0.0000000   0.1250000), wk =   0.0400000
        k(   19) = (   0.0000000   0.0000000   0.2500000), wk =   0.0400000
        k(   20) = (   0.0000000   0.0000000   0.3750000), wk =   0.0400000
        k(   21) = (   0.0000000   0.0000000   0.5000000), wk =   0.0400000
        k(   22) = (   0.0833333   0.0000000   0.5000000), wk =   0.0400000
        k(   23) = (   0.1666667   0.0000000   0.5000000), wk =   0.0400000
        k(   24) = (   0.2500000   0.0000000   0.5000000), wk =   0.0400000
        k(   25) = (   0.3333333   0.0000000   0.5000000), wk =   0.0400000
        k(   26) = (   0.4166667  -0.0000000   0.5000000), wk =   0.0400000
        k(   27) = (   0.5000000   0.0000000   0.5000000), wk =   0.0400000
        k(   28) = (   0.4583333   0.0833333   0.5000000), wk =   0.0400000
        k(   29) = (   0.4166667   0.1666667   0.5000000), wk =   0.0400000
        k(   30) = (   0.3750000   0.2500000   0.5000000), wk =   0.0400000
        k(   31) = (   0.3333333   0.3333333   0.5000000), wk =   0.0400000
        k(   32) = (   0.2916667   0.2916667   0.5000000), wk =   0.0400000
        k(   33) = (   0.2500000   0.2500000   0.5000000), wk =   0.0400000
        k(   34) = (   0.2083333   0.2083333   0.5000000), wk =   0.0400000
        k(   35) = (   0.1666667   0.1666667   0.5000000), wk =   0.0400000
        k(   36) = (   0.1250000   0.1250000   0.5000000), wk =   0.0400000
        k(   37) = (   0.0833333   0.0833333   0.5000000), wk =   0.0400000
        k(   38) = (   0.0416667   0.0416667   0.5000000), wk =   0.0400000
        k(   39) = (   0.0000000   0.0000000   0.5000000), wk =   0.0400000
        k(   40) = (   0.5000000   0.0000000   0.5000000), wk =   0.0400000
        k(   41) = (   0.5000000   0.0000000   0.3750000), wk =   0.0400000
        k(   42) = (   0.5000000   0.0000000   0.2500000), wk =   0.0400000
        k(   43) = (   0.5000000   0.0000000   0.1250000), wk =   0.0400000
        k(   44) = (   0.5000000   0.0000000   0.0000000), wk =   0.0400000
        k(   45) = (   0.3333333   0.3333333   0.0000000), wk =   0.0400000
        k(   46) = (   0.3333333   0.3333333   0.1000000), wk =   0.0400000
        k(   47) = (   0.3333333   0.3333333   0.2000000), wk =   0.0400000
        k(   48) = (   0.3333333   0.3333333   0.3000000), wk =   0.0400000
        k(   49) = (   0.3333333   0.3333333   0.4000000), wk =   0.0400000
        k(   50) = (   0.3333333   0.3333333   0.5000000), wk =   0.0400000

     Dense  grid:    33897 G-vectors     FFT dimensions: (  40,  40,  54)

     Smooth grid:    24249 G-vectors     FFT dimensions: (  36,  36,  45)

     Estimated max dynamical RAM per process >      47.29Mb

     The potential is recalculated from file :
     ./pwscf.save/charge-density.dat

     Starting wfc are   12 randomized atomic wfcs +    1 random wfc

     Band Structure Calculation
     Davidson diagonalization with overlap

     Computing kpt #:     1
     total cpu time spent up to now is        2.1 secs

     Computing kpt #:     2
     total cpu time spent up to now is        3.9 secs

     Computing kpt #:     3
     total cpu time spent up to now is        5.3 secs

     Computing kpt #:     4
     total cpu time spent up to now is        6.5 secs

     Computing kpt #:     5
     total cpu time spent up to now is        7.7 secs

     Computing kpt #:     6
     total cpu time spent up to now is        8.8 secs

     Computing kpt #:     7
     total cpu time spent up to now is        9.9 secs

     Computing kpt #:     8
     total cpu time spent up to now is       11.1 secs

     Computing kpt #:     9
     total cpu time spent up to now is       12.2 secs

     Computing kpt #:    10
     total cpu time spent up to now is       13.6 secs

     Computing kpt #:    11
     total cpu time spent up to now is       15.0 secs

     Computing kpt #:    12
     total cpu time spent up to now is       16.3 secs

     Computing kpt #:    13
     total cpu time spent up to now is       17.7 secs

     Computing kpt #:    14
     total cpu time spent up to now is       19.2 secs

     Computing kpt #:    15
     total cpu time spent up to now is       20.7 secs

     Computing kpt #:    16
     total cpu time spent up to now is       22.6 secs

     Computing kpt #:    17
     total cpu time spent up to now is       24.0 secs

     Computing kpt #:    18
     total cpu time spent up to now is       25.5 secs

     Computing kpt #:    19
     total cpu time spent up to now is       26.9 secs

     Computing kpt #:    20
     total cpu time spent up to now is       28.2 secs

     Computing kpt #:    21
     total cpu time spent up to now is       29.6 secs

     Computing kpt #:    22
     total cpu time spent up to now is       31.0 secs

     Computing kpt #:    23
     total cpu time spent up to now is       32.4 secs

     Computing kpt #:    24
     total cpu time spent up to now is       33.8 secs

     Computing kpt #:    25
     total cpu time spent up to now is       35.0 secs

     Computing kpt #:    26
     total cpu time spent up to now is       36.3 secs

     Computing kpt #:    27
     total cpu time spent up to now is       37.4 secs

     Computing kpt #:    28
     total cpu time spent up to now is       38.8 secs

     Computing kpt #:    29
     total cpu time spent up to now is       40.3 secs

     Computing kpt #:    30
     total cpu time spent up to now is       41.6 secs

     Computing kpt #:    31
     total cpu time spent up to now is       43.1 secs

     Computing kpt #:    32
     total cpu time spent up to now is       44.5 secs

     Computing kpt #:    33
     total cpu time spent up to now is       45.8 secs

     Computing kpt #:    34
     total cpu time spent up to now is       47.2 secs

     Computing kpt #:    35
     total cpu time spent up to now is       48.6 secs

     Computing kpt #:    36
     total cpu time spent up to now is       49.9 secs

     Computing kpt #:    37
     total cpu time spent up to now is       51.4 secs

     Computing kpt #:    38
     total cpu time spent up to now is       52.8 secs

     Computing kpt #:    39
     total cpu time spent up to now is       54.1 secs

     Computing kpt #:    40
     total cpu time spent up to now is       55.3 secs

     Computing kpt #:    41
     total cpu time spent up to now is       56.5 secs

     Computing kpt #:    42
     total cpu time spent up to now is       57.6 secs

     Computing kpt #:    43
     total cpu time spent up to now is       58.7 secs

     Computing kpt #:    44
     total cpu time spent up to now is       59.8 secs

     Computing kpt #:    45
     total cpu time spent up to now is       61.2 secs

     Computing kpt #:    46
     total cpu time spent up to now is       62.6 secs

     Computing kpt #:    47
     total cpu time spent up to now is       64.0 secs

     Computing kpt #:    48
     total cpu time spent up to now is       65.5 secs

     Computing kpt #:    49
     total cpu time spent up to now is       66.9 secs

     Computing kpt #:    50
     total cpu time spent up to now is       68.3 secs

     ethr =  5.56E-10,  avg # of iterations = 24.5

     total cpu time spent up to now is       68.3 secs

     End of band structure calculation

          k = 0.0000 0.0000 0.0000 (  3029 PWs)   bands (ev):

    -7.7368  -4.5772  -4.5772   2.6956   2.9470   2.9470   4.0340   4.0340
     4.8452   6.6760   6.6760   7.2418  10.7057

          k = 0.0833 0.0481 0.0000 (  3039 PWs)   bands (ev):

    -7.6917  -4.5921  -4.5675   2.3066   2.6842   2.8678   4.1910   4.4157
     4.9656   6.4817   6.6329   7.1545  10.5985

          k = 0.1667 0.0962 0.0000 (  3049 PWs)   bands (ev):

    -7.5598  -4.6490  -4.5393   1.6915   2.2782   2.6387   4.4453   4.7696
     4.9390   6.4387   6.5582   7.0625  10.1018

          k = 0.2500 0.1443 0.0000 (  3031 PWs)   bands (ev):

    -7.3528  -4.7733  -4.4974   1.2335   1.8967   2.3842   4.1802   4.6979
     4.8798   6.4821   6.6924   7.4519   9.5141

          k = 0.3333 0.1925 0.0000 (  3025 PWs)   bands (ev):

    -7.0970  -4.9719  -4.4518   1.0146   1.6007   2.1854   3.3873   4.7338
     4.8881   6.4671   6.6256   8.2850   9.0423

          k = 0.4167 0.2406 0.0000 (  3037 PWs)   bands (ev):

    -6.8520  -5.1924  -4.4162   0.9914   1.4331   2.1021   2.6959   4.7016
     4.8848   6.4674   6.5526   8.7452   8.9670

          k = 0.5000 0.2887 0.0000 (  3046 PWs)   bands (ev):

    -6.7389  -5.3002  -4.4026   1.0133   1.3964   2.1978   2.2872   4.6800
     4.8828   6.4716   6.5215   8.6448   9.2334

          k = 0.4444 0.3849 0.0000 (  3014 PWs)   bands (ev):

    -6.7047  -5.2559  -4.4895   1.0737   1.3732   2.2620   2.3474   4.2043
     4.2891   6.9595   7.1778   9.0180   9.1466

          k = 0.3889 0.4811 0.0000 (  3024 PWs)   bands (ev):

    -6.6225  -5.1315  -4.7124   1.2260   1.3472   2.4496   2.5143   3.4025
     3.4685   7.8309   8.1113   8.9016   9.8942

          k = 0.3333 0.5774 0.0000 (  3024 PWs)   bands (ev):

    -6.5673  -4.9532  -4.9532   1.3418   1.3418   2.6963   2.6963   2.8065
     3.0835   8.4329   8.4329   8.6895  10.5746

          k = 0.2857 0.4949 0.0000 (  3007 PWs)   bands (ev):

    -6.6356  -5.0456  -4.7905   1.2785   1.2860   2.4772   2.8736   3.1199
     3.2759   8.0929   8.4050   8.5602  10.3349

          k = 0.2381 0.4124 0.0000 (  3017 PWs)   bands (ev):

    -6.8375  -4.9904  -4.6538   1.1653   1.2171   2.5053   3.2603   3.5624
     3.6301   7.7175   8.0141   8.1644  10.0547

          k = 0.1905 0.3299 0.0000 (  3033 PWs)   bands (ev):

    -7.1033  -4.8585  -4.5690   1.1551   1.3070   2.6493   3.6939   4.0859
     4.0918   7.3590   7.4268   7.6721   9.9348

          k = 0.1429 0.2474 0.0000 (  3033 PWs)   bands (ev):

    -7.3595  -4.7287  -4.5402   1.3495   1.6062   2.7868   3.9971   4.6359
     4.6503   6.7430   6.9498   7.3034  10.0485

          k = 0.0952 0.1650 0.0000 (  3029 PWs)   bands (ev):

    -7.5633  -4.6384  -4.5490   1.7633   2.0826   2.8773   4.1498   4.9219
     5.0232   6.2834   6.6165   7.1452  10.3511

          k = 0.0476 0.0825 0.0000 (  3033 PWs)   bands (ev):

    -7.6926  -4.5912  -4.5683   2.3254   2.6312   2.9245   4.1381   4.4542
     4.9608   6.4839   6.6279   7.1619  10.6366

          k = 0.0000 0.0000 0.0000 (  3029 PWs)   bands (ev):

    -7.7368  -4.5772  -4.5772   2.6956   2.9470   2.9470   4.0340   4.0340
     4.8452   6.6760   6.6760   7.2418  10.7057

          k = 0.0000 0.0000 0.0945 (  3047 PWs)   bands (ev):

    -7.6822  -5.2427  -3.9040   2.6416   2.7281   3.1474   4.0706   4.1062
     4.8422   6.5540   6.5851   7.0805  10.4778

          k = 0.0000 0.0000 0.1890 (  3035 PWs)   bands (ev):

    -7.5191  -5.8627  -3.2854   2.2920   2.8188   3.2158   4.2340   4.2351
     4.8287   6.3073   6.3750   6.7109  10.1199

          k = 0.0000 0.0000 0.2835 (  3040 PWs)   bands (ev):

    -7.2501  -6.4133  -2.8221   1.9917   2.9472   3.1809   4.3581   4.4675
     4.7855   6.1096   6.1864   6.3304   9.8287

          k = 0.0000 0.0000 0.3780 (  3070 PWs)   bands (ev):

    -6.8792  -6.8792  -2.6442   1.8681   3.0803   3.0803   4.4113   4.6719
     4.6719   6.1011   6.1011   6.1117   9.7236

          k = 0.0833 0.0481 0.3780 (  3032 PWs)   bands (ev):

    -6.8461  -6.8373  -2.7390   1.8446   2.9873   3.0336   4.0818   4.3891
     4.5664   6.2382   6.3711   6.6713   9.8600

          k = 0.1667 0.0962 0.3780 (  3030 PWs)   bands (ev):

    -6.7527  -6.7141  -3.0009   1.7126   2.6258   2.8599   3.7647   4.0558
     4.3705   6.5816   6.8886   7.4605  10.1348

          k = 0.2500 0.1443 0.3780 (  3044 PWs)   bands (ev):

    -6.6167  -6.5196  -3.3742   1.3074   2.2563   2.6282   3.6729   3.8510
     4.3252   6.9260   7.4286   7.7941  10.1748

          k = 0.3333 0.1925 0.3780 (  3036 PWs)   bands (ev):

    -6.4692  -6.2769  -3.7848   0.7564   2.1125   2.4055   3.4753   3.7504
     4.6328   7.1141   7.5927   7.8568  10.2117

          k = 0.4167 0.2406 0.3780 (  3026 PWs)   bands (ev):

    -6.3523  -6.0422  -4.1366   0.3458   2.0762   2.2298   3.3390   3.6605
     5.1279   6.7713   7.5467   8.0903  10.2708

          k = 0.5000 0.2887 0.3780 (  3004 PWs)   bands (ev):

    -6.3073  -5.9334  -4.2872   0.1975   2.1020   2.1323   3.2922   3.6272
     5.4748   6.4045   7.5926   8.1586  10.2939

          k = 0.4583 0.3608 0.3780 (  3018 PWs)   bands (ev):

    -6.2809  -5.9343  -4.2968   0.2342   1.8237   1.8702   3.6777   3.8608
     5.4942   6.4061   7.4844   8.0135  10.3737

          k = 0.4167 0.4330 0.3780 (  3018 PWs)   bands (ev):

    -6.2073  -5.9410  -4.3255   0.3425   1.3559   1.4335   4.2889   4.3722
     5.5515   6.3809   7.2106   7.6316  10.6820

          k = 0.3750 0.5052 0.3780 (  3008 PWs)   bands (ev):

    -6.1051  -5.9632  -4.3672   0.5154   1.0046   1.0357   4.6295   5.0860
     5.6335   6.1994   6.9712   7.1870  11.2237

          k = 0.3333 0.5774 0.3780 (  3018 PWs)   bands (ev):

    -6.0133  -6.0133  -4.3931   0.6780   0.8361   0.8361   4.7526   5.6437
     5.6437   5.8573   6.9422   6.9422  11.6391

          k = 0.2917 0.5052 0.3780 (  3002 PWs)   bands (ev):

    -6.1002  -5.9899  -4.3447   0.6185   0.8646   1.0752   4.6383   5.2331
     5.4802   6.2336   7.0669   7.0715  11.2751

          k = 0.2500 0.4330 0.3780 (  3002 PWs)   bands (ev):

    -6.2232  -6.0718  -4.1743   0.6858   1.0765   1.3985   4.3562   4.7492
     5.2735   6.4417   7.3499   7.3916  10.8164

          k = 0.2083 0.3608 0.3780 (  3022 PWs)   bands (ev):

    -6.3712  -6.2354  -3.8947   0.9066   1.4425   1.7417   4.0371   4.3350
     5.0873   6.4536   7.6376   7.7167  10.5005

          k = 0.1667 0.2887 0.3780 (  3024 PWs)   bands (ev):

    -6.5260  -6.4292  -3.5560   1.2324   1.9225   2.0854   3.7889   4.0246
     4.9225   6.3801   7.7406   7.8686  10.3751

          k = 0.1250 0.2165 0.3780 (  3038 PWs)   bands (ev):

    -6.6683  -6.6114  -3.2127   1.5614   2.4342   2.4498   3.6885   3.8632
     4.7873   6.2792   7.5444   7.6852  10.4164

          k = 0.0833 0.1443 0.3780 (  3030 PWs)   bands (ev):

    -6.7816  -6.7559  -2.9168   1.7713   2.7819   2.8738   3.8084   3.9602
     4.6929   6.1849   7.0662   7.1551  10.1131

          k = 0.0417 0.0722 0.3780 (  3034 PWs)   bands (ev):

    -6.8542  -6.8478  -2.7156   1.8514   3.0121   3.0472   4.1671   4.3691
     4.6500   6.1193   6.4659   6.4819   9.8277

          k = 0.0000 0.0000 0.3780 (  3070 PWs)   bands (ev):

    -6.8792  -6.8792  -2.6442   1.8681   3.0803   3.0803   4.4113   4.6719
     4.6719   6.1011   6.1011   6.1117   9.7236

          k = 0.5000 0.2887 0.3780 (  3004 PWs)   bands (ev):

    -6.3073  -5.9334  -4.2872   0.1975   2.1020   2.1323   3.2922   3.6272
     5.4748   6.4045   7.5926   8.1586  10.2939

          k = 0.5000 0.2887 0.2835 (  3018 PWs)   bands (ev):

    -6.4244  -5.7893  -4.3032   0.3054   1.7557   2.2619   3.4842   3.7794
     4.7772   7.0718   7.3822   8.0410   9.9937

          k = 0.5000 0.2887 0.1890 (  3030 PWs)   bands (ev):

    -6.5885  -5.5571  -4.3426   0.6115   1.3915   2.1871   3.6741   3.9828
     4.2674   6.8450   7.5128   8.2051   9.3976

          k = 0.5000 0.2887 0.0945 (  3028 PWs)   bands (ev):

    -6.7002  -5.3717  -4.3842   1.0159   1.1750   2.1081   2.8574   4.5286
     4.5804   6.5282   6.9153   8.8565   8.9473

          k = 0.5000 0.2887 0.0000 (  3046 PWs)   bands (ev):

    -6.7389  -5.3002  -4.4026   1.0133   1.3964   2.1978   2.2872   4.6800
     4.8828   6.4716   6.5215   8.6448   9.2334

          k = 0.3333 0.5774 0.0000 (  3024 PWs)   bands (ev):

    -6.5673  -4.9532  -4.9532   1.3418   1.3418   2.6963   2.6963   2.8065
     3.0835   8.4329   8.4329   8.6895  10.5746

          k = 0.3333 0.5774 0.0756 (  3018 PWs)   bands (ev):

    -6.5430  -5.1518  -4.7742   1.0560   1.4527   2.3484   2.5574   3.2030
     3.5936   8.1996   8.4197   8.5478  10.6560

          k = 0.3333 0.5774 0.1512 (  3015 PWs)   bands (ev):

    -6.4711  -5.3647  -4.6203   0.8259   1.2235   1.8427   2.9552   3.8353
     4.2503   7.7206   8.1704   8.1896  10.8883

          k = 0.3333 0.5774 0.2268 (  3015 PWs)   bands (ev):

    -6.3549  -5.5854  -4.4992   0.7075   0.9418   1.4124   3.5956   4.5135
     4.9102   7.0554   7.6542   7.7930  11.2570

          k = 0.3333 0.5774 0.3024 (  3018 PWs)   bands (ev):

    -6.1997  -5.8050  -4.4205   0.7117   0.7466   1.0731   4.3018   5.1748
     5.4847   6.3210   7.1282   7.3119  11.5278

          k = 0.3333 0.5774 0.3780 (  3018 PWs)   bands (ev):

    -6.0133  -6.0133  -4.3931   0.6780   0.8361   0.8361   4.7526   5.6437
     5.6437   5.8573   6.9422   6.9422  11.6391

     Writing output data file pwscf.save

     init_run     :      0.73s CPU      0.70s WALL (       1 calls)
     electrons    :    135.64s CPU     67.49s WALL (       1 calls)

     Called by init_run:
     wfcinit      :      0.00s CPU      0.00s WALL (       1 calls)
     wfcinit:atom :      0.23s CPU      0.07s WALL (      50 calls)
     wfcinit:wfcr :      7.66s CPU      4.00s WALL (      50 calls)
     potinit      :      0.06s CPU      0.09s WALL (       1 calls)

     Called by electrons:
     c_bands      :    135.64s CPU     67.49s WALL (       1 calls)
     v_of_rho     :      0.05s CPU      0.08s WALL (       1 calls)
     v_h          :      0.00s CPU      0.00s WALL (       1 calls)
     v_xc         :      0.05s CPU      0.07s WALL (       1 calls)
     newd         :      0.05s CPU      0.13s WALL (       1 calls)

     Called by c_bands:
     init_us_2    :      0.34s CPU      0.14s WALL (      50 calls)
     cegterg      :    126.25s CPU     62.75s WALL (      89 calls)

     Called by sum_band:

     Called by *egterg:
     h_psi        :    113.98s CPU     56.11s WALL (    1366 calls)
     s_psi        :      2.06s CPU      1.25s WALL (    1366 calls)
     g_psi        :      0.44s CPU      0.31s WALL (    1227 calls)
     cdiaghg      :      4.94s CPU      2.57s WALL (    1277 calls)
     cegterg:over :      4.73s CPU      2.47s WALL (    1227 calls)
     cegterg:upda :      3.97s CPU      2.03s WALL (    1227 calls)
     cegterg:last :      2.77s CPU      1.23s WALL (     239 calls)

     Called by h_psi:
     h_psi:pot    :    113.73s CPU     55.88s WALL (    1366 calls)
     h_psi:calbec :      3.05s CPU      1.50s WALL (    1366 calls)
     vloc_psi     :    107.33s CPU     52.77s WALL (    1366 calls)
     add_vuspsi   :      3.30s CPU      1.57s WALL (    1366 calls)

     General routines
     calbec       :      2.92s CPU      1.48s WALL (    1366 calls)
     fft          :      0.05s CPU      0.04s WALL (      13 calls)
     ffts         :      0.00s CPU      0.00s WALL (       1 calls)
     fftw         :     99.94s CPU     49.13s WALL (   19024 calls)
     interpolate  :      0.02s CPU      0.01s WALL (       1 calls)
     davcio       :      0.00s CPU      0.01s WALL (      50 calls)

     Parallel routines
     fft_scatter  :      3.75s CPU      1.63s WALL (   19038 calls)

     PWSCF        :  2m16.77s CPU     1m 8.58s WALL


   This run was terminated on:  18: 5:52  26Feb2021            

=------------------------------------------------------------------------------=
   JOB DONE.
=------------------------------------------------------------------------------=
