
     Program PWSCF v.6.0 (svn rev. 13079) starts on 25Feb2021 at 11:19: 6 

     This program is part of the open-source Quantum ESPRESSO suite
     for quantum simulation of materials; please cite
         "P. Giannozzi et al., J. Phys.:Condens. Matter 21 395502 (2009);
          URL http://www.quantum-espresso.org", 
     in publications or presentations arising from this work. More details at
     http://www.quantum-espresso.org/quote

     Parallel version (MPI), running on     1 processors
     Reading input from espresso.pwi
Warning: card &IONS ignored
Warning: card / ignored
Warning: card &CELL ignored
Warning: card / ignored

     Current dimensions of program PWSCF are:
     Max number of different atomic species (ntypx) = 10
     Max number of k-points (npk) =  40000
     Max angular momentum in pseudopotentials (lmaxx) =  3
     Message from routine input:
     WARNING: "startingwfc" set to atomic+random may spoil restart

     Atomic positions and unit cell read from directory:
     ./pwscf.save/


     IMPORTANT: XC functional enforced from input :
     Exchange-correlation      = PBE ( 1  4  3  4 0 0)
     Any further DFT definition will be discarded
     Please, verify this is what you really want


     Subspace diagonalization in iterative solution of the eigenvalue problem:
     a serial algorithm will be used


     G-vector sticks info
     --------------------
     sticks:   dense  smooth     PW     G-vecs:    dense   smooth      PW
     Sum         291     233     83                 3151     2315     459



     bravais-lattice index     =            0
     lattice parameter (alat)  =       4.4416  a.u.
     unit-cell volume          =      67.4522 (a.u.)^3
     number of atoms/cell      =            1
     number of atomic types    =            1
     number of electrons       =         7.00
     number of Kohn-Sham states=            8
     kinetic-energy cutoff     =      40.0000  Ry
     charge density cutoff     =     200.0000  Ry
     Exchange-correlation      = PBE ( 1  4  3  4 0 0)

     celldm(1)=   4.441599  celldm(2)=   0.000000  celldm(3)=   0.000000
     celldm(4)=   0.000000  celldm(5)=   0.000000  celldm(6)=   0.000000

     crystal axes: (cart. coord. in units of alat)
               a(1) = (  -0.577350   0.577350   0.577350 )  
               a(2) = (   0.577350  -0.577350   0.577350 )  
               a(3) = (   0.577350   0.577350  -0.577350 )  

     reciprocal axes: (cart. coord. in units 2 pi/alat)
               b(1) = (  0.000000  0.866025  0.866025 )  
               b(2) = (  0.866025  0.000000  0.866025 )  
               b(3) = (  0.866025  0.866025  0.000000 )  


     PseudoPot. # 1 for F  read from file:
     /home/inukai/tango/tests/1element/qe_fit_v2_F/../pseudo/f_pbe_v1.4.uspp.F.UPF
     MD5 check sum: 4c38b6a325caf53ec0e86aed9459de46
     Pseudo is Ultrasoft, Zval =  7.0
     Generated by new atomic code, or converted to UPF format
     Using radial grid of  799 points,  4 beta functions with: 
                l(1) =   0
                l(2) =   0
                l(3) =   1
                l(4) =   1
     Q(r) pseudized with  8 coefficients,  rinner =    0.950   0.950   0.950


     atomic species   valence    mass     pseudopotential
        F              7.00    18.99840     F ( 1.00)

     48 Sym. Ops., with inversion, found


                                    s                        frac. trans.

      isym =  1     identity                                     

 cryst.   s( 1) = (     1          0          0      )
                  (     0          1          0      )
                  (     0          0          1      )

 cart.    s( 1) = (  1.0000000  0.0000000  0.0000000 )
                  (  0.0000000  1.0000000  0.0000000 )
                  (  0.0000000  0.0000000  1.0000000 )


      isym =  2     180 deg rotation - cart. axis [0,0,1]        

 cryst.   s( 2) = (     0          1          0      )
                  (     1          0          0      )
                  (    -1         -1         -1      )

 cart.    s( 2) = ( -1.0000000  0.0000000  0.0000000 )
                  (  0.0000000 -1.0000000  0.0000000 )
                  (  0.0000000  0.0000000  1.0000000 )


      isym =  3     180 deg rotation - cart. axis [0,1,0]        

 cryst.   s( 3) = (     0          0          1      )
                  (    -1         -1         -1      )
                  (     1          0          0      )

 cart.    s( 3) = ( -1.0000000  0.0000000  0.0000000 )
                  (  0.0000000  1.0000000  0.0000000 )
                  (  0.0000000  0.0000000 -1.0000000 )


      isym =  4     180 deg rotation - cart. axis [1,0,0]        

 cryst.   s( 4) = (    -1         -1         -1      )
                  (     0          0          1      )
                  (     0          1          0      )

 cart.    s( 4) = (  1.0000000  0.0000000  0.0000000 )
                  (  0.0000000 -1.0000000  0.0000000 )
                  (  0.0000000  0.0000000 -1.0000000 )


      isym =  5     180 deg rotation - cart. axis [1,1,0]        

 cryst.   s( 5) = (    -1          0          0      )
                  (     0         -1          0      )
                  (     1          1          1      )

 cart.    s( 5) = (  0.0000000  1.0000000  0.0000000 )
                  (  1.0000000  0.0000000  0.0000000 )
                  (  0.0000000  0.0000000 -1.0000000 )


      isym =  6     180 deg rotation - cart. axis [1,-1,0]       

 cryst.   s( 6) = (     0         -1          0      )
                  (    -1          0          0      )
                  (     0          0         -1      )

 cart.    s( 6) = (  0.0000000 -1.0000000  0.0000000 )
                  ( -1.0000000  0.0000000  0.0000000 )
                  (  0.0000000  0.0000000 -1.0000000 )


      isym =  7      90 deg rotation - cart. axis [0,0,-1]       

 cryst.   s( 7) = (     1          1          1      )
                  (     0          0         -1      )
                  (    -1          0          0      )

 cart.    s( 7) = (  0.0000000  1.0000000  0.0000000 )
                  ( -1.0000000  0.0000000  0.0000000 )
                  (  0.0000000  0.0000000  1.0000000 )


      isym =  8      90 deg rotation - cart. axis [0,0,1]        

 cryst.   s( 8) = (     0          0         -1      )
                  (     1          1          1      )
                  (     0         -1          0      )

 cart.    s( 8) = (  0.0000000 -1.0000000  0.0000000 )
                  (  1.0000000  0.0000000  0.0000000 )
                  (  0.0000000  0.0000000  1.0000000 )


      isym =  9     180 deg rotation - cart. axis [1,0,1]        

 cryst.   s( 9) = (    -1          0          0      )
                  (     1          1          1      )
                  (     0          0         -1      )

 cart.    s( 9) = (  0.0000000  0.0000000  1.0000000 )
                  (  0.0000000 -1.0000000  0.0000000 )
                  (  1.0000000  0.0000000  0.0000000 )


      isym = 10     180 deg rotation - cart. axis [-1,0,1]       

 cryst.   s(10) = (     0          0         -1      )
                  (     0         -1          0      )
                  (    -1          0          0      )

 cart.    s(10) = (  0.0000000  0.0000000 -1.0000000 )
                  (  0.0000000 -1.0000000  0.0000000 )
                  ( -1.0000000  0.0000000  0.0000000 )


      isym = 11      90 deg rotation - cart. axis [0,1,0]        

 cryst.   s(11) = (     1          1          1      )
                  (    -1          0          0      )
                  (     0         -1          0      )

 cart.    s(11) = (  0.0000000  0.0000000  1.0000000 )
                  (  0.0000000  1.0000000  0.0000000 )
                  ( -1.0000000  0.0000000  0.0000000 )


      isym = 12      90 deg rotation - cart. axis [0,-1,0]       

 cryst.   s(12) = (     0         -1          0      )
                  (     0          0         -1      )
                  (     1          1          1      )

 cart.    s(12) = (  0.0000000  0.0000000 -1.0000000 )
                  (  0.0000000  1.0000000  0.0000000 )
                  (  1.0000000  0.0000000  0.0000000 )


      isym = 13     180 deg rotation - cart. axis [0,1,1]        

 cryst.   s(13) = (     1          1          1      )
                  (     0         -1          0      )
                  (     0          0         -1      )

 cart.    s(13) = ( -1.0000000  0.0000000  0.0000000 )
                  (  0.0000000  0.0000000  1.0000000 )
                  (  0.0000000  1.0000000  0.0000000 )


      isym = 14     180 deg rotation - cart. axis [0,1,-1]       

 cryst.   s(14) = (    -1          0          0      )
                  (     0          0         -1      )
                  (     0         -1          0      )

 cart.    s(14) = ( -1.0000000  0.0000000  0.0000000 )
                  (  0.0000000  0.0000000 -1.0000000 )
                  (  0.0000000 -1.0000000  0.0000000 )


      isym = 15      90 deg rotation - cart. axis [-1,0,0]       

 cryst.   s(15) = (     0         -1          0      )
                  (     1          1          1      )
                  (    -1          0          0      )

 cart.    s(15) = (  1.0000000  0.0000000  0.0000000 )
                  (  0.0000000  0.0000000  1.0000000 )
                  (  0.0000000 -1.0000000  0.0000000 )


      isym = 16      90 deg rotation - cart. axis [1,0,0]        

 cryst.   s(16) = (     0          0         -1      )
                  (    -1          0          0      )
                  (     1          1          1      )

 cart.    s(16) = (  1.0000000  0.0000000  0.0000000 )
                  (  0.0000000  0.0000000 -1.0000000 )
                  (  0.0000000  1.0000000  0.0000000 )


      isym = 17     120 deg rotation - cart. axis [-1,-1,-1]     

 cryst.   s(17) = (     0          0          1      )
                  (     1          0          0      )
                  (     0          1          0      )

 cart.    s(17) = (  0.0000000  1.0000000  0.0000000 )
                  (  0.0000000  0.0000000  1.0000000 )
                  (  1.0000000  0.0000000  0.0000000 )


      isym = 18     120 deg rotation - cart. axis [-1,1,1]       

 cryst.   s(18) = (     1          0          0      )
                  (     0          0          1      )
                  (    -1         -1         -1      )

 cart.    s(18) = (  0.0000000 -1.0000000  0.0000000 )
                  (  0.0000000  0.0000000  1.0000000 )
                  ( -1.0000000  0.0000000  0.0000000 )


      isym = 19     120 deg rotation - cart. axis [1,1,-1]       

 cryst.   s(19) = (     0          1          0      )
                  (    -1         -1         -1      )
                  (     0          0          1      )

 cart.    s(19) = (  0.0000000  1.0000000  0.0000000 )
                  (  0.0000000  0.0000000 -1.0000000 )
                  ( -1.0000000  0.0000000  0.0000000 )


      isym = 20     120 deg rotation - cart. axis [1,-1,1]       

 cryst.   s(20) = (    -1         -1         -1      )
                  (     0          1          0      )
                  (     1          0          0      )

 cart.    s(20) = (  0.0000000 -1.0000000  0.0000000 )
                  (  0.0000000  0.0000000 -1.0000000 )
                  (  1.0000000  0.0000000  0.0000000 )


      isym = 21     120 deg rotation - cart. axis [1,1,1]        

 cryst.   s(21) = (     0          1          0      )
                  (     0          0          1      )
                  (     1          0          0      )

 cart.    s(21) = (  0.0000000  0.0000000  1.0000000 )
                  (  1.0000000  0.0000000  0.0000000 )
                  (  0.0000000  1.0000000  0.0000000 )


      isym = 22     120 deg rotation - cart. axis [-1,1,-1]      

 cryst.   s(22) = (     0          0          1      )
                  (     0          1          0      )
                  (    -1         -1         -1      )

 cart.    s(22) = (  0.0000000  0.0000000  1.0000000 )
                  ( -1.0000000  0.0000000  0.0000000 )
                  (  0.0000000 -1.0000000  0.0000000 )


      isym = 23     120 deg rotation - cart. axis [1,-1,-1]      

 cryst.   s(23) = (     1          0          0      )
                  (    -1         -1         -1      )
                  (     0          1          0      )

 cart.    s(23) = (  0.0000000  0.0000000 -1.0000000 )
                  ( -1.0000000  0.0000000  0.0000000 )
                  (  0.0000000  1.0000000  0.0000000 )


      isym = 24     120 deg rotation - cart. axis [-1,-1,1]      

 cryst.   s(24) = (    -1         -1         -1      )
                  (     1          0          0      )
                  (     0          0          1      )

 cart.    s(24) = (  0.0000000  0.0000000 -1.0000000 )
                  (  1.0000000  0.0000000  0.0000000 )
                  (  0.0000000 -1.0000000  0.0000000 )


      isym = 25     inversion                                    

 cryst.   s(25) = (    -1          0          0      )
                  (     0         -1          0      )
                  (     0          0         -1      )

 cart.    s(25) = ( -1.0000000  0.0000000  0.0000000 )
                  (  0.0000000 -1.0000000  0.0000000 )
                  (  0.0000000  0.0000000 -1.0000000 )


      isym = 26     inv. 180 deg rotation - cart. axis [0,0,1]   

 cryst.   s(26) = (     0         -1          0      )
                  (    -1          0          0      )
                  (     1          1          1      )

 cart.    s(26) = (  1.0000000  0.0000000  0.0000000 )
                  (  0.0000000  1.0000000  0.0000000 )
                  (  0.0000000  0.0000000 -1.0000000 )


      isym = 27     inv. 180 deg rotation - cart. axis [0,1,0]   

 cryst.   s(27) = (     0          0         -1      )
                  (     1          1          1      )
                  (    -1          0          0      )

 cart.    s(27) = (  1.0000000  0.0000000  0.0000000 )
                  (  0.0000000 -1.0000000  0.0000000 )
                  (  0.0000000  0.0000000  1.0000000 )


      isym = 28     inv. 180 deg rotation - cart. axis [1,0,0]   

 cryst.   s(28) = (     1          1          1      )
                  (     0          0         -1      )
                  (     0         -1          0      )

 cart.    s(28) = ( -1.0000000  0.0000000  0.0000000 )
                  (  0.0000000  1.0000000  0.0000000 )
                  (  0.0000000  0.0000000  1.0000000 )


      isym = 29     inv. 180 deg rotation - cart. axis [1,1,0]   

 cryst.   s(29) = (     1          0          0      )
                  (     0          1          0      )
                  (    -1         -1         -1      )

 cart.    s(29) = (  0.0000000 -1.0000000  0.0000000 )
                  ( -1.0000000  0.0000000  0.0000000 )
                  (  0.0000000  0.0000000  1.0000000 )


      isym = 30     inv. 180 deg rotation - cart. axis [1,-1,0]  

 cryst.   s(30) = (     0          1          0      )
                  (     1          0          0      )
                  (     0          0          1      )

 cart.    s(30) = (  0.0000000  1.0000000  0.0000000 )
                  (  1.0000000  0.0000000  0.0000000 )
                  (  0.0000000  0.0000000  1.0000000 )


      isym = 31     inv.  90 deg rotation - cart. axis [0,0,-1]  

 cryst.   s(31) = (    -1         -1         -1      )
                  (     0          0          1      )
                  (     1          0          0      )

 cart.    s(31) = (  0.0000000 -1.0000000  0.0000000 )
                  (  1.0000000  0.0000000  0.0000000 )
                  (  0.0000000  0.0000000 -1.0000000 )


      isym = 32     inv.  90 deg rotation - cart. axis [0,0,1]   

 cryst.   s(32) = (     0          0          1      )
                  (    -1         -1         -1      )
                  (     0          1          0      )

 cart.    s(32) = (  0.0000000  1.0000000  0.0000000 )
                  ( -1.0000000  0.0000000  0.0000000 )
                  (  0.0000000  0.0000000 -1.0000000 )


      isym = 33     inv. 180 deg rotation - cart. axis [1,0,1]   

 cryst.   s(33) = (     1          0          0      )
                  (    -1         -1         -1      )
                  (     0          0          1      )

 cart.    s(33) = (  0.0000000  0.0000000 -1.0000000 )
                  (  0.0000000  1.0000000  0.0000000 )
                  ( -1.0000000  0.0000000  0.0000000 )


      isym = 34     inv. 180 deg rotation - cart. axis [-1,0,1]  

 cryst.   s(34) = (     0          0          1      )
                  (     0          1          0      )
                  (     1          0          0      )

 cart.    s(34) = (  0.0000000  0.0000000  1.0000000 )
                  (  0.0000000  1.0000000  0.0000000 )
                  (  1.0000000  0.0000000  0.0000000 )


      isym = 35     inv.  90 deg rotation - cart. axis [0,1,0]   

 cryst.   s(35) = (    -1         -1         -1      )
                  (     1          0          0      )
                  (     0          1          0      )

 cart.    s(35) = (  0.0000000  0.0000000 -1.0000000 )
                  (  0.0000000 -1.0000000  0.0000000 )
                  (  1.0000000  0.0000000  0.0000000 )


      isym = 36     inv.  90 deg rotation - cart. axis [0,-1,0]  

 cryst.   s(36) = (     0          1          0      )
                  (     0          0          1      )
                  (    -1         -1         -1      )

 cart.    s(36) = (  0.0000000  0.0000000  1.0000000 )
                  (  0.0000000 -1.0000000  0.0000000 )
                  ( -1.0000000  0.0000000  0.0000000 )


      isym = 37     inv. 180 deg rotation - cart. axis [0,1,1]   

 cryst.   s(37) = (    -1         -1         -1      )
                  (     0          1          0      )
                  (     0          0          1      )

 cart.    s(37) = (  1.0000000  0.0000000  0.0000000 )
                  (  0.0000000  0.0000000 -1.0000000 )
                  (  0.0000000 -1.0000000  0.0000000 )


      isym = 38     inv. 180 deg rotation - cart. axis [0,1,-1]  

 cryst.   s(38) = (     1          0          0      )
                  (     0          0          1      )
                  (     0          1          0      )

 cart.    s(38) = (  1.0000000  0.0000000  0.0000000 )
                  (  0.0000000  0.0000000  1.0000000 )
                  (  0.0000000  1.0000000  0.0000000 )


      isym = 39     inv.  90 deg rotation - cart. axis [-1,0,0]  

 cryst.   s(39) = (     0          1          0      )
                  (    -1         -1         -1      )
                  (     1          0          0      )

 cart.    s(39) = ( -1.0000000  0.0000000  0.0000000 )
                  (  0.0000000  0.0000000 -1.0000000 )
                  (  0.0000000  1.0000000  0.0000000 )


      isym = 40     inv.  90 deg rotation - cart. axis [1,0,0]   

 cryst.   s(40) = (     0          0          1      )
                  (     1          0          0      )
                  (    -1         -1         -1      )

 cart.    s(40) = ( -1.0000000  0.0000000  0.0000000 )
                  (  0.0000000  0.0000000  1.0000000 )
                  (  0.0000000 -1.0000000  0.0000000 )


      isym = 41     inv. 120 deg rotation - cart. axis [-1,-1,-1]

 cryst.   s(41) = (     0          0         -1      )
                  (    -1          0          0      )
                  (     0         -1          0      )

 cart.    s(41) = (  0.0000000 -1.0000000  0.0000000 )
                  (  0.0000000  0.0000000 -1.0000000 )
                  ( -1.0000000  0.0000000  0.0000000 )


      isym = 42     inv. 120 deg rotation - cart. axis [-1,1,1]  

 cryst.   s(42) = (    -1          0          0      )
                  (     0          0         -1      )
                  (     1          1          1      )

 cart.    s(42) = (  0.0000000  1.0000000  0.0000000 )
                  (  0.0000000  0.0000000 -1.0000000 )
                  (  1.0000000  0.0000000  0.0000000 )


      isym = 43     inv. 120 deg rotation - cart. axis [1,1,-1]  

 cryst.   s(43) = (     0         -1          0      )
                  (     1          1          1      )
                  (     0          0         -1      )

 cart.    s(43) = (  0.0000000 -1.0000000  0.0000000 )
                  (  0.0000000  0.0000000  1.0000000 )
                  (  1.0000000  0.0000000  0.0000000 )


      isym = 44     inv. 120 deg rotation - cart. axis [1,-1,1]  

 cryst.   s(44) = (     1          1          1      )
                  (     0         -1          0      )
                  (    -1          0          0      )

 cart.    s(44) = (  0.0000000  1.0000000  0.0000000 )
                  (  0.0000000  0.0000000  1.0000000 )
                  ( -1.0000000  0.0000000  0.0000000 )


      isym = 45     inv. 120 deg rotation - cart. axis [1,1,1]   

 cryst.   s(45) = (     0         -1          0      )
                  (     0          0         -1      )
                  (    -1          0          0      )

 cart.    s(45) = (  0.0000000  0.0000000 -1.0000000 )
                  ( -1.0000000  0.0000000  0.0000000 )
                  (  0.0000000 -1.0000000  0.0000000 )


      isym = 46     inv. 120 deg rotation - cart. axis [-1,1,-1] 

 cryst.   s(46) = (     0          0         -1      )
                  (     0         -1          0      )
                  (     1          1          1      )

 cart.    s(46) = (  0.0000000  0.0000000 -1.0000000 )
                  (  1.0000000  0.0000000  0.0000000 )
                  (  0.0000000  1.0000000  0.0000000 )


      isym = 47     inv. 120 deg rotation - cart. axis [1,-1,-1] 

 cryst.   s(47) = (    -1          0          0      )
                  (     1          1          1      )
                  (     0         -1          0      )

 cart.    s(47) = (  0.0000000  0.0000000  1.0000000 )
                  (  1.0000000  0.0000000  0.0000000 )
                  (  0.0000000 -1.0000000  0.0000000 )


      isym = 48     inv. 120 deg rotation - cart. axis [-1,-1,1] 

 cryst.   s(48) = (     1          1          1      )
                  (    -1          0          0      )
                  (     0          0         -1      )

 cart.    s(48) = (  0.0000000  0.0000000  1.0000000 )
                  ( -1.0000000  0.0000000  0.0000000 )
                  (  0.0000000  1.0000000  0.0000000 )


   Cartesian axes

     site n.     atom                  positions (alat units)
         1           F   tau(   1) = (   0.0000000   0.0000000   0.0000000  )

   Crystallographic axes

     site n.     atom                  positions (cryst. coord.)
         1           F   tau(   1) = (  0.0000000  0.0000000  0.0000000  )

     number of k points=    50  gaussian smearing, width (Ry)=  0.0010
                       cart. coord. in units 2pi/alat
        k(    1) = (   0.0000000   0.0000000   0.0000000), wk =   0.0400000
        k(    2) = (   0.0000000   0.0618590   0.0000000), wk =   0.0400000
        k(    3) = (   0.0000000   0.1237179   0.0000000), wk =   0.0400000
        k(    4) = (   0.0000000   0.1855769   0.0000000), wk =   0.0400000
        k(    5) = (   0.0000000   0.2474358   0.0000000), wk =   0.0400000
        k(    6) = (   0.0000000   0.3092948   0.0000000), wk =   0.0400000
        k(    7) = (   0.0000000   0.3711537   0.0000000), wk =   0.0400000
        k(    8) = (   0.0000000   0.4330127   0.0000000), wk =   0.0400000
        k(    9) = (   0.0000000   0.4948717   0.0000000), wk =   0.0400000
        k(   10) = (   0.0000000   0.5567306   0.0000000), wk =   0.0400000
        k(   11) = (   0.0000000   0.6185896   0.0000000), wk =   0.0400000
        k(   12) = (   0.0000000   0.6804485   0.0000000), wk =   0.0400000
        k(   13) = (   0.0000000   0.7423075   0.0000000), wk =   0.0400000
        k(   14) = (   0.0000000   0.8041664   0.0000000), wk =   0.0400000
        k(   15) = (   0.0000000   0.8660254   0.0000000), wk =   0.0400000
        k(   16) = (   0.0433013   0.8227241   0.0000000), wk =   0.0400000
        k(   17) = (   0.0866025   0.7794229   0.0000000), wk =   0.0400000
        k(   18) = (   0.1299038   0.7361216   0.0000000), wk =   0.0400000
        k(   19) = (   0.1732051   0.6928203   0.0000000), wk =   0.0400000
        k(   20) = (   0.2165064   0.6495191   0.0000000), wk =   0.0400000
        k(   21) = (   0.2598076   0.6062178   0.0000000), wk =   0.0400000
        k(   22) = (   0.3031089   0.5629165   0.0000000), wk =   0.0400000
        k(   23) = (   0.3464102   0.5196152   0.0000000), wk =   0.0400000
        k(   24) = (   0.3897114   0.4763140   0.0000000), wk =   0.0400000
        k(   25) = (   0.4330127   0.4330127   0.0000000), wk =   0.0400000
        k(   26) = (   0.3936479   0.3936479   0.0000000), wk =   0.0400000
        k(   27) = (   0.3542831   0.3542831   0.0000000), wk =   0.0400000
        k(   28) = (   0.3149183   0.3149183   0.0000000), wk =   0.0400000
        k(   29) = (   0.2755535   0.2755535   0.0000000), wk =   0.0400000
        k(   30) = (   0.2361887   0.2361887   0.0000000), wk =   0.0400000
        k(   31) = (   0.1968240   0.1968240   0.0000000), wk =   0.0400000
        k(   32) = (   0.1574592   0.1574592   0.0000000), wk =   0.0400000
        k(   33) = (   0.1180944   0.1180944   0.0000000), wk =   0.0400000
        k(   34) = (   0.0787296   0.0787296   0.0000000), wk =   0.0400000
        k(   35) = (   0.0393648   0.0393648   0.0000000), wk =   0.0400000
        k(   36) = (   0.0000000   0.0000000   0.0000000), wk =   0.0400000
        k(   37) = (   0.0309295   0.0309295   0.0309295), wk =   0.0400000
        k(   38) = (   0.0618590   0.0618590   0.0618590), wk =   0.0400000
        k(   39) = (   0.0927884   0.0927884   0.0927884), wk =   0.0400000
        k(   40) = (   0.1237179   0.1237179   0.1237179), wk =   0.0400000
        k(   41) = (   0.1546474   0.1546474   0.1546474), wk =   0.0400000
        k(   42) = (   0.1855769   0.1855769   0.1855769), wk =   0.0400000
        k(   43) = (   0.2165064   0.2165064   0.2165064), wk =   0.0400000
        k(   44) = (   0.2474358   0.2474358   0.2474358), wk =   0.0400000
        k(   45) = (   0.2783653   0.2783653   0.2783653), wk =   0.0400000
        k(   46) = (   0.3092948   0.3092948   0.3092948), wk =   0.0400000
        k(   47) = (   0.3402243   0.3402243   0.3402243), wk =   0.0400000
        k(   48) = (   0.3711537   0.3711537   0.3711537), wk =   0.0400000
        k(   49) = (   0.4020832   0.4020832   0.4020832), wk =   0.0400000
        k(   50) = (   0.4330127   0.4330127   0.4330127), wk =   0.0400000

                       cryst. coord.
        k(    1) = (   0.0000000   0.0000000   0.0000000), wk =   0.0400000
        k(    2) = (   0.0357143  -0.0357143   0.0357143), wk =   0.0400000
        k(    3) = (   0.0714286  -0.0714286   0.0714286), wk =   0.0400000
        k(    4) = (   0.1071429  -0.1071429   0.1071429), wk =   0.0400000
        k(    5) = (   0.1428571  -0.1428571   0.1428571), wk =   0.0400000
        k(    6) = (   0.1785714  -0.1785714   0.1785714), wk =   0.0400000
        k(    7) = (   0.2142857  -0.2142857   0.2142857), wk =   0.0400000
        k(    8) = (   0.2500000  -0.2500000   0.2500000), wk =   0.0400000
        k(    9) = (   0.2857143  -0.2857143   0.2857143), wk =   0.0400000
        k(   10) = (   0.3214286  -0.3214286   0.3214286), wk =   0.0400000
        k(   11) = (   0.3571429  -0.3571429   0.3571429), wk =   0.0400000
        k(   12) = (   0.3928571  -0.3928571   0.3928571), wk =   0.0400000
        k(   13) = (   0.4285714  -0.4285714   0.4285714), wk =   0.0400000
        k(   14) = (   0.4642857  -0.4642857   0.4642857), wk =   0.0400000
        k(   15) = (   0.5000000  -0.5000000   0.5000000), wk =   0.0400000
        k(   16) = (   0.4500000  -0.4500000   0.5000000), wk =   0.0400000
        k(   17) = (   0.4000000  -0.4000000   0.5000000), wk =   0.0400000
        k(   18) = (   0.3500000  -0.3500000   0.5000000), wk =   0.0400000
        k(   19) = (   0.3000000  -0.3000000   0.5000000), wk =   0.0400000
        k(   20) = (   0.2500000  -0.2500000   0.5000000), wk =   0.0400000
        k(   21) = (   0.2000000  -0.2000000   0.5000000), wk =   0.0400000
        k(   22) = (   0.1500000  -0.1500000   0.5000000), wk =   0.0400000
        k(   23) = (   0.1000000  -0.1000000   0.5000000), wk =   0.0400000
        k(   24) = (   0.0500000  -0.0500000   0.5000000), wk =   0.0400000
        k(   25) = (   0.0000000   0.0000000   0.5000000), wk =   0.0400000
        k(   26) = (   0.0000000   0.0000000   0.4545455), wk =   0.0400000
        k(   27) = (   0.0000000   0.0000000   0.4090909), wk =   0.0400000
        k(   28) = (   0.0000000   0.0000000   0.3636364), wk =   0.0400000
        k(   29) = (   0.0000000   0.0000000   0.3181818), wk =   0.0400000
        k(   30) = (   0.0000000   0.0000000   0.2727273), wk =   0.0400000
        k(   31) = (   0.0000000   0.0000000   0.2272727), wk =   0.0400000
        k(   32) = (   0.0000000   0.0000000   0.1818182), wk =   0.0400000
        k(   33) = (   0.0000000   0.0000000   0.1363636), wk =   0.0400000
        k(   34) = (   0.0000000   0.0000000   0.0909091), wk =   0.0400000
        k(   35) = (   0.0000000   0.0000000   0.0454545), wk =   0.0400000
        k(   36) = (   0.0000000   0.0000000   0.0000000), wk =   0.0400000
        k(   37) = (   0.0178571   0.0178571   0.0178571), wk =   0.0400000
        k(   38) = (   0.0357143   0.0357143   0.0357143), wk =   0.0400000
        k(   39) = (   0.0535714   0.0535714   0.0535714), wk =   0.0400000
        k(   40) = (   0.0714286   0.0714286   0.0714286), wk =   0.0400000
        k(   41) = (   0.0892857   0.0892857   0.0892857), wk =   0.0400000
        k(   42) = (   0.1071429   0.1071429   0.1071429), wk =   0.0400000
        k(   43) = (   0.1250000   0.1250000   0.1250000), wk =   0.0400000
        k(   44) = (   0.1428571   0.1428571   0.1428571), wk =   0.0400000
        k(   45) = (   0.1607143   0.1607143   0.1607143), wk =   0.0400000
        k(   46) = (   0.1785714   0.1785714   0.1785714), wk =   0.0400000
        k(   47) = (   0.1964286   0.1964286   0.1964286), wk =   0.0400000
        k(   48) = (   0.2142857   0.2142857   0.2142857), wk =   0.0400000
        k(   49) = (   0.2321429   0.2321429   0.2321429), wk =   0.0400000
        k(   50) = (   0.2500000   0.2500000   0.2500000), wk =   0.0400000

     Dense  grid:     3151 G-vectors     FFT dimensions: (  20,  20,  20)

     Smooth grid:     2315 G-vectors     FFT dimensions: (  18,  18,  18)

     Estimated max dynamical RAM per process >       3.07Mb

     The potential is recalculated from file :
     ./pwscf.save/charge-density.dat

     Starting wfc are    4 randomized atomic wfcs +    4 random wfc

     Band Structure Calculation
     Davidson diagonalization with overlap

     Computing kpt #:     1
     total cpu time spent up to now is        0.3 secs

     Computing kpt #:     2
     total cpu time spent up to now is        0.4 secs

     Computing kpt #:     3
     total cpu time spent up to now is        0.5 secs

     Computing kpt #:     4
     total cpu time spent up to now is        0.5 secs

     Computing kpt #:     5
     total cpu time spent up to now is        0.6 secs

     Computing kpt #:     6
     total cpu time spent up to now is        0.6 secs

     Computing kpt #:     7
     total cpu time spent up to now is        0.7 secs

     Computing kpt #:     8
     total cpu time spent up to now is        0.7 secs

     Computing kpt #:     9
     total cpu time spent up to now is        0.8 secs

     Computing kpt #:    10
     total cpu time spent up to now is        0.8 secs

     Computing kpt #:    11
     total cpu time spent up to now is        0.9 secs

     Computing kpt #:    12
     total cpu time spent up to now is        1.0 secs

     Computing kpt #:    13
     total cpu time spent up to now is        1.0 secs

     Computing kpt #:    14
     total cpu time spent up to now is        1.1 secs

     Computing kpt #:    15
     total cpu time spent up to now is        1.1 secs

     Computing kpt #:    16
     total cpu time spent up to now is        1.2 secs

     Computing kpt #:    17
     total cpu time spent up to now is        1.2 secs

     Computing kpt #:    18
     total cpu time spent up to now is        1.3 secs

     Computing kpt #:    19
     total cpu time spent up to now is        1.4 secs

     Computing kpt #:    20
     total cpu time spent up to now is        1.4 secs

     Computing kpt #:    21
     total cpu time spent up to now is        1.5 secs

     Computing kpt #:    22
     total cpu time spent up to now is        1.5 secs

     Computing kpt #:    23
     total cpu time spent up to now is        1.6 secs

     Computing kpt #:    24
     total cpu time spent up to now is        1.6 secs

     Computing kpt #:    25
     total cpu time spent up to now is        1.7 secs

     Computing kpt #:    26
     total cpu time spent up to now is        1.8 secs

     Computing kpt #:    27
     total cpu time spent up to now is        1.8 secs

     Computing kpt #:    28
     total cpu time spent up to now is        1.9 secs

     Computing kpt #:    29
     total cpu time spent up to now is        1.9 secs

     Computing kpt #:    30
     total cpu time spent up to now is        2.0 secs

     Computing kpt #:    31
     total cpu time spent up to now is        2.0 secs

     Computing kpt #:    32
     total cpu time spent up to now is        2.1 secs

     Computing kpt #:    33
     total cpu time spent up to now is        2.2 secs

     Computing kpt #:    34
     total cpu time spent up to now is        2.2 secs

     Computing kpt #:    35
     total cpu time spent up to now is        2.3 secs

     Computing kpt #:    36
     total cpu time spent up to now is        2.4 secs

     Computing kpt #:    37
     total cpu time spent up to now is        2.4 secs

     Computing kpt #:    38
     total cpu time spent up to now is        2.5 secs

     Computing kpt #:    39
     total cpu time spent up to now is        2.6 secs

     Computing kpt #:    40
     total cpu time spent up to now is        2.6 secs

     Computing kpt #:    41
     total cpu time spent up to now is        2.7 secs

     Computing kpt #:    42
     total cpu time spent up to now is        2.8 secs

     Computing kpt #:    43
     total cpu time spent up to now is        2.8 secs

     Computing kpt #:    44
     total cpu time spent up to now is        2.9 secs

     Computing kpt #:    45
     total cpu time spent up to now is        2.9 secs

     Computing kpt #:    46
     total cpu time spent up to now is        3.0 secs

     Computing kpt #:    47
     total cpu time spent up to now is        3.1 secs

     Computing kpt #:    48
     total cpu time spent up to now is        3.1 secs

     Computing kpt #:    49
     total cpu time spent up to now is        3.2 secs

     Computing kpt #:    50
     total cpu time spent up to now is        3.2 secs

     ethr =  1.43E-09,  avg # of iterations = 10.6

     total cpu time spent up to now is        3.2 secs

     End of band structure calculation

          k = 0.0000 0.0000 0.0000 (   321 PWs)   bands (ev):

   -22.6651  -0.4024  -0.4024  -0.4024  12.9512  35.7073  35.7073  35.7073

          k = 0.0000 0.0619 0.0000 (   317 PWs)   bands (ev):

   -22.6279  -0.5061  -0.4302  -0.4302  13.1050  35.1317  35.1317  35.8096

          k = 0.0000 0.1237 0.0000 (   301 PWs)   bands (ev):

   -22.5182  -0.7953  -0.5124  -0.5124  13.5442  33.9953  33.9953  34.3938

          k = 0.0000 0.1856 0.0000 (   301 PWs)   bands (ev):

   -22.3422  -1.2139  -0.6478  -0.6478  14.2119  32.0488  32.8566  32.8566

          k = 0.0000 0.2474 0.0000 (   289 PWs)   bands (ev):

   -22.1097  -1.6919  -0.8306  -0.8306  15.0389  29.8934  31.8950  31.8950

          k = 0.0000 0.3093 0.0000 (   293 PWs)   bands (ev):

   -21.8342  -2.1659  -1.0553  -1.0553  15.9575  27.9370  31.1598  31.1598

          k = 0.0000 0.3712 0.0000 (   293 PWs)   bands (ev):

   -21.5323  -2.5838  -1.3114  -1.3114  16.9054  26.1836  30.6588  30.6588

          k = 0.0000 0.4330 0.0000 (   293 PWs)   bands (ev):

   -21.2227  -2.9088  -1.5863  -1.5863  17.8216  24.6347  30.3781  30.3781

          k = 0.0000 0.4949 0.0000 (   293 PWs)   bands (ev):

   -20.9240  -3.1196  -1.8657  -1.8657  18.6397  23.2913  30.2899  30.2899

          k = 0.0000 0.5567 0.0000 (   285 PWs)   bands (ev):

   -20.6531  -3.2117  -2.1342  -2.1342  19.2853  22.1540  30.3556  30.3556

          k = 0.0000 0.6186 0.0000 (   277 PWs)   bands (ev):

   -20.4231  -3.1986  -2.3773  -2.3773  19.6882  21.2231  30.5261  30.5261

          k = 0.0000 0.6804 0.0000 (   277 PWs)   bands (ev):

   -20.2419  -3.1119  -2.5818  -2.5818  19.8239  20.4987  30.7457  30.7457

          k = 0.0000 0.7423 0.0000 (   274 PWs)   bands (ev):

   -20.1130  -2.9970  -2.7358  -2.7358  19.7574  19.9816  30.9581  30.9581

          k = 0.0000 0.8042 0.0000 (   274 PWs)   bands (ev):

   -20.0363  -2.9015  -2.8318  -2.8318  19.6280  19.6711  31.1106  31.1106

          k = 0.0000 0.8660 0.0000 (   266 PWs)   bands (ev):

   -20.0109  -2.8642  -2.8642  -2.8642  19.5676  19.5676  31.1662  31.1662

          k = 0.0433 0.8227 0.0000 (   276 PWs)   bands (ev):

   -20.0355  -2.9195  -2.8325  -2.8147  19.6394  19.6577  30.9885  31.1104

          k = 0.0866 0.7794 0.0000 (   278 PWs)   bands (ev):

   -20.1062  -3.0762  -2.7394  -2.6682  19.8419  19.9045  30.5293  30.9415

          k = 0.1299 0.7361 0.0000 (   276 PWs)   bands (ev):

   -20.2149  -3.3128  -2.5917  -2.4352  20.1387  20.2325  29.9811  30.6569

          k = 0.1732 0.6928 0.0000 (   276 PWs)   bands (ev):

   -20.3492  -3.5992  -2.4012  -2.1335  20.4837  20.5073  29.6070  30.2601

          k = 0.2165 0.6495 0.0000 (   288 PWs)   bands (ev):

   -20.4951  -3.9032  -2.1845  -1.7868  20.5717  20.8318  29.6737  29.7702

          k = 0.2598 0.6062 0.0000 (   284 PWs)   bands (ev):

   -20.6378  -4.1940  -1.9605  -1.4239  20.3578  21.1498  29.2334  30.3265

          k = 0.3031 0.5629 0.0000 (   284 PWs)   bands (ev):

   -20.7640  -4.4462  -1.7524  -1.0808  19.9547  21.4143  28.7114  31.5167

          k = 0.3464 0.5196 0.0000 (   284 PWs)   bands (ev):

   -20.8625  -4.6400  -1.5827  -0.7962  19.5259  21.6115  28.2742  33.0679

          k = 0.3897 0.4763 0.0000 (   282 PWs)   bands (ev):

   -20.9251  -4.7617  -1.4714  -0.6067  19.2116  21.7328  27.9838  34.6759

          k = 0.4330 0.4330 0.0000 (   288 PWs)   bands (ev):

   -20.9465  -4.8034  -1.4327  -0.5406  19.0973  21.7735  27.8820  35.5301

          k = 0.3936 0.3936 0.0000 (   282 PWs)   bands (ev):

   -20.9873  -4.7204  -1.4131  -0.5373  18.9108  21.9934  27.9636  35.5054

          k = 0.3543 0.3543 0.0000 (   286 PWs)   bands (ev):

   -21.1046  -4.4788  -1.3558  -0.5286  18.4373  22.5752  28.2077  35.4481

          k = 0.3149 0.3149 0.0000 (   288 PWs)   bands (ev):

   -21.2843  -4.0970  -1.2645  -0.5150  17.7960  23.4272  28.6136  35.4001

          k = 0.2756 0.2756 0.0000 (   287 PWs)   bands (ev):

   -21.5065  -3.6028  -1.1455  -0.4978  17.0544  24.5190  29.1795  35.4107

          k = 0.2362 0.2362 0.0000 (   285 PWs)   bands (ev):

   -21.7493  -3.0306  -1.0076  -0.4783  16.2581  25.8468  29.9026  35.5231

          k = 0.1968 0.1968 0.0000 (   289 PWs)   bands (ev):

   -21.9915  -2.4192  -0.8614  -0.4589  15.4498  27.4095  30.7768  35.7697

          k = 0.1575 0.1575 0.0000 (   293 PWs)   bands (ev):

   -22.2145  -1.8124  -0.7181  -0.4403  14.6754  29.1980  31.7916  36.1728

          k = 0.1181 0.1181 0.0000 (   297 PWs)   bands (ev):

   -22.4033  -1.2568  -0.5903  -0.4244  13.9855  31.1858  32.9234  36.7060

          k = 0.0787 0.0787 0.0000 (   301 PWs)   bands (ev):

   -22.5461  -0.8042  -0.4892  -0.4122  13.4347  33.2814  34.1149  36.1615

          k = 0.0394 0.0394 0.0000 (   321 PWs)   bands (ev):

   -22.6350  -0.5069  -0.4248  -0.4050  13.0760  35.0852  35.1982  35.8218

          k = 0.0000 0.0000 0.0000 (   321 PWs)   bands (ev):

   -22.6651  -0.4024  -0.4024  -0.4024  12.9512  35.7073  35.7073  35.7073

          k = 0.0309 0.0309 0.0309 (   321 PWs)   bands (ev):

   -22.6372  -0.5051  -0.4111  -0.4111  13.0668  35.1630  35.1630  35.8227

          k = 0.0619 0.0619 0.0619 (   303 PWs)   bands (ev):

   -22.5548  -0.7949  -0.4375  -0.4375  13.4002  33.7001  33.7001  36.1583

          k = 0.0928 0.0928 0.0928 (   297 PWs)   bands (ev):

   -22.4223  -1.2292  -0.4850  -0.4850  13.9165  31.9626  31.9626  36.6734

          k = 0.1237 0.1237 0.1237 (   297 PWs)   bands (ev):

   -22.2467  -1.7488  -0.5569  -0.5569  14.5740  30.2830  30.2830  37.3033

          k = 0.1546 0.1546 0.1546 (   288 PWs)   bands (ev):

   -22.0379  -2.2949  -0.6571  -0.6571  15.3349  28.7557  28.7557  37.9531

          k = 0.1856 0.1856 0.1856 (   288 PWs)   bands (ev):

   -21.8084  -2.8156  -0.7896  -0.7896  16.1683  27.4097  27.4097  38.4998

          k = 0.2165 0.2165 0.2165 (   294 PWs)   bands (ev):

   -21.5729  -3.2663  -0.9567  -0.9567  17.0504  26.2533  26.2533  38.8265

          k = 0.2474 0.2474 0.2474 (   291 PWs)   bands (ev):

   -21.3468  -3.6096  -1.1579  -1.1579  17.9614  25.2839  25.2839  38.8619

          k = 0.2784 0.2784 0.2784 (   291 PWs)   bands (ev):

   -21.1449  -3.8194  -1.3903  -1.3903  18.8803  24.4912  24.4912  38.6102

          k = 0.3093 0.3093 0.3093 (   291 PWs)   bands (ev):

   -20.9793  -3.8787  -1.6474  -1.6474  19.7820  23.8583  23.8583  38.1487

          k = 0.3402 0.3402 0.3402 (   297 PWs)   bands (ev):

   -20.8567  -3.7834  -1.9206  -1.9206  20.6340  23.3650  23.3650  37.5883

          k = 0.3712 0.3712 0.3712 (   297 PWs)   bands (ev):

   -20.7782  -3.5418  -2.1988  -2.1988  21.3967  22.9882  22.9882  37.0517

          k = 0.4021 0.4021 0.4021 (   297 PWs)   bands (ev):

   -20.7384  -3.1769  -2.4704  -2.4704  22.0260  22.7038  22.7038  36.6581

          k = 0.4330 0.4330 0.4330 (   276 PWs)   bands (ev):

   -20.7278  -2.7234  -2.7234  -2.7234  22.4895  22.4895  22.4895  36.5100

     Writing output data file pwscf.save

     init_run     :      0.12s CPU      0.13s WALL (       1 calls)
     electrons    :      5.77s CPU      2.95s WALL (       1 calls)

     Called by init_run:
     wfcinit      :      0.00s CPU      0.00s WALL (       1 calls)
     wfcinit:atom :      0.00s CPU      0.00s WALL (      50 calls)
     wfcinit:wfcr :      0.36s CPU      0.27s WALL (      50 calls)
     potinit      :      0.02s CPU      0.01s WALL (       1 calls)

     Called by electrons:
     c_bands      :      5.77s CPU      2.95s WALL (       1 calls)
     v_of_rho     :      0.00s CPU      0.01s WALL (       1 calls)
     v_h          :      0.00s CPU      0.00s WALL (       1 calls)
     v_xc         :      0.00s CPU      0.01s WALL (       1 calls)
     newd         :      0.00s CPU      0.00s WALL (       1 calls)

     Called by c_bands:
     init_us_2    :      0.00s CPU      0.01s WALL (      50 calls)
     cegterg      :      5.33s CPU      2.61s WALL (      50 calls)

     Called by sum_band:

     Called by *egterg:
     h_psi        :      3.70s CPU      2.12s WALL (     632 calls)
     s_psi        :      0.08s CPU      0.02s WALL (     632 calls)
     g_psi        :      0.11s CPU      0.01s WALL (     532 calls)
     cdiaghg      :      1.39s CPU      0.52s WALL (     582 calls)
     cegterg:over :      0.06s CPU      0.06s WALL (     532 calls)
     cegterg:upda :      0.08s CPU      0.05s WALL (     532 calls)
     cegterg:last :      0.09s CPU      0.03s WALL (     135 calls)

     Called by h_psi:
     h_psi:pot    :      3.70s CPU      2.11s WALL (     632 calls)
     h_psi:calbec :      0.08s CPU      0.03s WALL (     632 calls)
     vloc_psi     :      3.58s CPU      2.04s WALL (     632 calls)
     add_vuspsi   :      0.03s CPU      0.02s WALL (     632 calls)

     General routines
     calbec       :      0.08s CPU      0.02s WALL (     632 calls)
     fft          :      0.00s CPU      0.00s WALL (      12 calls)
     ffts         :      0.02s CPU      0.01s WALL (       1 calls)
     fftw         :      3.42s CPU      1.89s WALL (    6670 calls)
     interpolate  :      0.02s CPU      0.01s WALL (       1 calls)
     davcio       :      0.00s CPU      0.00s WALL (      50 calls)

     Parallel routines
     fft_scatter  :      0.02s CPU      0.09s WALL (    6683 calls)

     PWSCF        :     6.31s CPU         3.53s WALL


   This run was terminated on:  11:19: 9  25Feb2021            

=------------------------------------------------------------------------------=
   JOB DONE.
=------------------------------------------------------------------------------=
