element =  Ag
struct =  fcc
nbands =  -4
path =  WLGXWK
kpts =  (8,8,8)
lattice constant a =  4.085
lattice constant b =  4.085
lattice constant c =  4.085
alpha angle =  90.0

  ___ ___ ___ _ _ _  
 |   |   |_  | | | | 
 | | | | | . | | | | 
 |__ |  _|___|_____|  1.3.1b1
 |___|_|             

User:   inukai@DESKTOP-12SE80T
Date:   Fri Feb 12 00:42:10 2021
Arch:   x86_64
Pid:    16674
Python: 3.6.9
gpaw:   /usr/lib/python3/dist-packages/gpaw
_gpaw:  /usr/lib/python3/dist-packages/_gpaw.cpython-36m-x86_64-linux-gnu.so
ase:    /home/inukai/hotcent/ase-3.19.3/ase (version 3.19.3)
numpy:  /home/inukai/.local/lib/python3.6/site-packages/numpy (version 1.19.5)
scipy:  /home/inukai/.local/lib/python3.6/site-packages/scipy (version 1.5.4)
units:  Angstrom and eV
cores:  1

Input parameters:
  kpts: [8 8 8]
  maxiter: 1500
  mixer: {backend: pulay,
          beta: 0.01,
          method: separate,
          nmaxold: 11,
          weight: 100.0}
  mode: {ecut: 400.0,
         name: pw}
  occupations: {name: fermi-dirac,
                width: 0.02}
  spinpol: True
  xc: PBE

System changes: positions, numbers, cell, pbc, initial_charges, initial_magmoms 

Initialize ...

Ag-setup:
  name: Silver
  id: 33ddeab48f408598355e2011f1241e14
  Z: 47
  valence: 17
  core: 30
  charge: 0.0
  file: /usr/share/gpaw-setups/Ag.PBE.gz
  cutoffs: 1.25(comp), 2.35(filt), 2.19(core), lmax=2
  valence states:
                energy  radius
    5s(1.00)    -4.401   1.286
    4p(6.00)   -58.577   1.328
    5p(0.00)    -0.738   1.328
    4d(10.00)    -7.446   1.180
    *s          22.811   1.286
    *d          19.766   1.180

  Using partial waves for Ag as LCAO basis

Reference energy: -144597.826354

Spin-polarized calculation.
Magnetic moment:  0.000000

Occupation numbers:
  Fermi-Dirac: width=0.0200 eV

Convergence criteria:
  Maximum total energy change: 0.0005 eV / electron
  Maximum integral of absolute density change: 0.0001 electrons
  Maximum integral of absolute eigenstate change: 4e-08 eV^2
  Maximum number of iterations: 1500

Symmetries present (total): 48

  ( 1  0  0)  ( 1  0  0)  ( 1  0  0)  ( 1  0  0)  ( 1  0 -1)  ( 1  0 -1)
  ( 1  0 -1)  ( 1 -1  0)  ( 0  1  0)  ( 0  0  1)  ( 1  0  0)  ( 1 -1  0)
  ( 1 -1  0)  ( 1  0 -1)  ( 0  0  1)  ( 0  1  0)  ( 1 -1  0)  ( 1  0  0)

  ( 1  0 -1)  ( 1  0 -1)  ( 1 -1  0)  ( 1 -1  0)  ( 1 -1  0)  ( 1 -1  0)
  ( 0  1 -1)  ( 0  0 -1)  ( 1  0  0)  ( 1  0 -1)  ( 0 -1  1)  ( 0 -1  0)
  ( 0  0 -1)  ( 0  1 -1)  ( 1  0 -1)  ( 1  0  0)  ( 0 -1  0)  ( 0 -1  1)

  ( 0  1  0)  ( 0  1  0)  ( 0  1  0)  ( 0  1  0)  ( 0  1 -1)  ( 0  1 -1)
  ( 1  0  0)  ( 0  1 -1)  ( 0  0  1)  (-1  1  0)  ( 1  0 -1)  ( 0  1  0)
  ( 0  0  1)  (-1  1  0)  ( 1  0  0)  ( 0  1 -1)  ( 0  0 -1)  (-1  1  0)

  ( 0  1 -1)  ( 0  1 -1)  ( 0  0  1)  ( 0  0  1)  ( 0  0  1)  ( 0  0  1)
  ( 0  0 -1)  (-1  1  0)  ( 1  0  0)  ( 0  1  0)  ( 0 -1  1)  (-1  0  1)
  ( 1  0 -1)  ( 0  1  0)  ( 0  1  0)  ( 1  0  0)  (-1  0  1)  ( 0 -1  1)

  ( 0  0 -1)  ( 0  0 -1)  ( 0  0 -1)  ( 0  0 -1)  ( 0 -1  1)  ( 0 -1  1)
  ( 1  0 -1)  ( 0  1 -1)  ( 0 -1  0)  (-1  0  0)  ( 1 -1  0)  ( 0  0  1)
  ( 0  1 -1)  ( 1  0 -1)  (-1  0  0)  ( 0 -1  0)  ( 0 -1  0)  (-1  0  1)

  ( 0 -1  1)  ( 0 -1  1)  ( 0 -1  0)  ( 0 -1  0)  ( 0 -1  0)  ( 0 -1  0)
  ( 0 -1  0)  (-1  0  1)  ( 1 -1  0)  ( 0  0 -1)  ( 0 -1  1)  (-1  0  0)
  ( 1 -1  0)  ( 0  0  1)  ( 0 -1  1)  (-1  0  0)  ( 1 -1  0)  ( 0  0 -1)

  (-1  1  0)  (-1  1  0)  (-1  1  0)  (-1  1  0)  (-1  0  1)  (-1  0  1)
  ( 0  1  0)  ( 0  1 -1)  (-1  0  1)  (-1  0  0)  ( 0  0  1)  ( 0 -1  1)
  ( 0  1 -1)  ( 0  1  0)  (-1  0  0)  (-1  0  1)  ( 0 -1  1)  ( 0  0  1)

  (-1  0  1)  (-1  0  1)  (-1  0  0)  (-1  0  0)  (-1  0  0)  (-1  0  0)
  (-1  1  0)  (-1  0  0)  ( 0  0 -1)  ( 0 -1  0)  (-1  1  0)  (-1  0  1)
  (-1  0  0)  (-1  1  0)  ( 0 -1  0)  ( 0  0 -1)  (-1  0  1)  (-1  1  0)
Note: your k-points are not as symmetric as your crystal!

512 k-points: 8 x 8 x 8 Monkhorst-Pack grid
60 k-points in the irreducible part of the Brillouin zone
       k-points in crystal coordinates                weights
   0:     0.06250000    0.06250000   -0.06250000          6/512
   1:     0.06250000    0.06250000    0.06250000          2/512
   2:     0.18750000   -0.06250000   -0.06250000          6/512
   3:     0.18750000    0.06250000   -0.18750000         12/512
   4:     0.18750000    0.06250000   -0.06250000         12/512
   5:     0.18750000    0.06250000    0.06250000          6/512
   6:     0.18750000    0.18750000   -0.18750000          6/512
   7:     0.18750000    0.18750000   -0.06250000          6/512
   8:     0.18750000    0.18750000    0.06250000          6/512
   9:     0.18750000    0.18750000    0.18750000          2/512
          ...
  59:     0.43750000    0.43750000    0.43750000          2/512

Wave functions: Plane wave expansion
  Cutoff energy: 400.000 eV
  Number of coefficients (min, max): 303, 320
  Using FFTW library
  Eigensolver: None  MatrixOperator buffer_size: default value or 
                              see value of nblock in input file
Diagonalizer layout: Serial LAPACKOrthonormalizer layout: Serial LAPACK 

Davidson(niter=1, smin=None, normalize=True) 

Densities:
  Coarse grid: 12*12*12 grid
  Fine grid: 24*24*24 grid
  Total Charge: 0.000000 

Density mixing:
  Method: separate
  Backend: pulay
  Linear mixing parameter: 0.01
  Mixing with 11 old densities
  Damping of long wave oscillations: 100 

Hamiltonian:
  XC and Coulomb potentials evaluated on a 24*24*24 grid
  Using the PBE Exchange-Correlation functional
 

Memory estimate:
  Process memory now: 928.72 MiB
  Calculator: 11.62 MiB
    Density: 1.28 MiB
      Arrays: 0.46 MiB
      Localized functions: 0.23 MiB
      Mixer: 0.58 MiB
    Hamiltonian: 0.35 MiB
      Arrays: 0.34 MiB
      XC: 0.00 MiB
      Poisson: 0.00 MiB
      vbar: 0.00 MiB
    Wavefunctions: 10.00 MiB
      Arrays psit_nG: 7.03 MiB
      Eigensolver: 0.11 MiB
      Projections: 0.40 MiB
      Projectors: 2.13 MiB
      Overlap op: 0.06 MiB
      PW-descriptor: 0.28 MiB

Total number of cores used: 1

Number of atoms: 1
Number of atomic orbitals: 12
Number of bands in calculation: 12
Bands to converge: occupied states only
Number of valence electrons: 17

... initialized

Initializing position-dependent things.

Density initialized from atomic densities
Creating initial wave functions:
  12 bands from LCAO basis set

                
                
                
       Ag       
                
                
                
                

Positions:
   0 Ag     0.000000    0.000000    0.000000

Unit cell:
           periodic     x           y           z      points  spacing
  1. axis:    yes    0.000000    2.042500    2.042500    12     0.1965
  2. axis:    yes    2.042500    0.000000    2.042500    12     0.1965
  3. axis:    yes    2.042500    2.042500    0.000000    12     0.1965

  Lengths:   2.888531   2.888531   2.888531
  Angles:   60.000000  60.000000  60.000000

Effective grid spacing dv^(1/3) = 0.2144

                     log10-error:    total        iterations:
           time      wfs    density  energy       fermi  poisson  magmom
iter:   1  00:42:15  +2.11   +inf    -3.009890    4               -0.0000
iter:   2  00:42:17  -0.51   +inf    -3.034305    4               +0.0000
iter:   3  00:42:18  -1.62   +inf    -3.037577    3               -0.0000
iter:   4  00:42:21  -2.02  -1.51    -3.024437    4               +0.0000
iter:   5  00:42:23  -0.26  -1.52    -2.790292    30              -0.0000
iter:   6  00:42:25  -0.73  -1.87    -2.811464    27              -0.0000
iter:   7  00:42:27  -1.41  -2.10    -2.788377    4               -0.0000
iter:   8  00:42:30  -1.51  -2.20    -2.776461    27              -0.0000
iter:   9  00:42:32  -3.56  -3.43    -2.776519    2               -0.0000
iter:  10  00:42:34  -3.87  -3.35    -2.776476    3               +0.0000
iter:  11  00:42:36  -2.93  -3.57    -2.776767    3               -0.0000
iter:  12  00:42:38  -3.15  -3.06    -2.776497    3               -0.0000
iter:  13  00:42:40  -4.76  -3.79    -2.776491    3               -0.0000
iter:  14  00:42:42  -5.75  -4.24    -2.776491    2               -0.0000
iter:  15  00:42:44  -6.32  -4.25    -2.776492    2               +0.0000
iter:  16  00:42:46  -5.98  -4.27    -2.776492    2               +0.0000
iter:  17  00:42:48  -6.71  -4.60    -2.776492    2               +0.0000
iter:  18  00:42:50  -6.44  -4.81    -2.776492    2               +0.0000
iter:  19  00:42:53  -7.15  -4.84    -2.776492    2               +0.0000
iter:  20  00:42:55  -8.35  -4.94    -2.776492    2               -0.0000

Converged after 20 iterations.

Dipole moment: (0.000000, 0.000000, 0.000000) |e|*Ang

Total magnetic moment: -0.000000
Local magnetic moments:
   0 Ag 0.000000

Energy contributions relative to reference atoms: (reference = -144597.826354)

Kinetic:         -0.593945
Potential:       -0.598231
External:        +0.000000
XC:              -1.823937
Entropy (-ST):   -0.000773
Local:           +0.240009
--------------------------
Free energy:     -2.776878
Extrapolated:    -2.776492

Spin contamination: 0.000000 electrons
Fermi level: 8.22546

Warning: Showing only first 2 kpts
                      Up                     Down
 Kpt  Band  Eigenvalues  Occupancy  Eigenvalues  Occupancy
  0     6      3.63603    0.01172      3.63603    0.01172
  0     7      4.40773    0.01172      4.40773    0.01172
  0     8      4.58590    0.01172      4.58590    0.01172
  0     9     24.40017    0.00000     24.40017    0.00000

  1     6      3.52569    0.00391      3.52569    0.00391
  1     7      4.52290    0.00391      4.52290    0.00391
  1     8      4.52290    0.00391      4.52290    0.00391
  1     9     24.51561    0.00000     24.51561    0.00000


Input parameters:
  convergence: {bands: all}
  eigensolver: {name: cg,
                niter: 5}
  fixdensity: True
  kpts: {npoints: 50,
         path: WLGXWK}
  nbands: -4
  symmetry: off

Initialize ...

Ag-setup:
  name: Silver
  id: 33ddeab48f408598355e2011f1241e14
  Z: 47
  valence: 17
  core: 30
  charge: 0.0
  file: /usr/share/gpaw-setups/Ag.PBE.gz
  cutoffs: 1.25(comp), 2.35(filt), 2.19(core), lmax=2
  valence states:
                energy  radius
    5s(1.00)    -4.401   1.286
    4p(6.00)   -58.577   1.328
    5p(0.00)    -0.738   1.328
    4d(10.00)    -7.446   1.180
    *s          22.811   1.286
    *d          19.766   1.180

  Using partial waves for Ag as LCAO basis

Reference energy: -144597.826354

Spin-polarized calculation.
Magnetic moment:  0.000000

Occupation numbers:
  Fixed Fermi level
  Fermi-Dirac: width=0.0200 eV

Convergence criteria:
  Maximum total energy change: 0.0005 eV / electron
  Maximum integral of absolute density change: 0.0001 electrons
  Maximum integral of absolute eigenstate change: 4e-08 eV^2
  Maximum number of iterations: 1500

Symmetries present (total): 1

  ( 1  0  0)
  ( 0  1  0)
  ( 0  0  1)

50 k-points
50 k-points in the irreducible part of the Brillouin zone
       k-points in crystal coordinates                weights
   0:     0.50000000    0.25000000    0.75000000          1/50
   1:     0.50000000    0.27777778    0.72222222          1/50
   2:     0.50000000    0.30555556    0.69444444          1/50
   3:     0.50000000    0.33333333    0.66666667          1/50
   4:     0.50000000    0.36111111    0.63888889          1/50
   5:     0.50000000    0.38888889    0.61111111          1/50
   6:     0.50000000    0.41666667    0.58333333          1/50
   7:     0.50000000    0.44444444    0.55555556          1/50
   8:     0.50000000    0.47222222    0.52777778          1/50
   9:     0.50000000    0.50000000    0.50000000          1/50
          ...
  49:     0.37500000    0.37500000    0.75000000          1/50

Wave functions: Plane wave expansion
  Cutoff energy: 400.000 eV
  Number of coefficients (min, max): 300, 331
  Using FFTW library
  Eigensolver: None  MatrixOperator buffer_size: default value or 
                              see value of nblock in input file
Diagonalizer layout: Serial LAPACKOrthonormalizer layout: Serial LAPACK 

CG(niter=5, rtol=3.0e-01) 

No density mixing

Memory estimate:
  Process memory now: 1008.19 MiB
  Calculator: 10.18 MiB
    Density: 1.28 MiB
      Arrays: 0.46 MiB
      Localized functions: 0.23 MiB
      Mixer: 0.58 MiB
    Hamiltonian: 0.35 MiB
      Arrays: 0.34 MiB
      XC: 0.00 MiB
      Poisson: 0.00 MiB
      vbar: 0.00 MiB
    Wavefunctions: 8.56 MiB
      Arrays psit_nG: 6.06 MiB
      Eigensolver: 0.09 MiB
      Projections: 0.33 MiB
      Projectors: 1.78 MiB
      Overlap op: 0.06 MiB
      PW-descriptor: 0.24 MiB

Total number of cores used: 1

Number of atoms: 1
Number of atomic orbitals: 12
Number of bands in calculation: 12
Bands to converge: all
Number of valence electrons: 17

... initialized

Initializing position-dependent things.

Creating initial wave functions:
  12 bands from LCAO basis set

                
                
                
       Ag       
                
                
                
                

Positions:
   0 Ag     0.000000    0.000000    0.000000

Unit cell:
           periodic     x           y           z      points  spacing
  1. axis:    yes    0.000000    2.042500    2.042500    12     0.1965
  2. axis:    yes    2.042500    0.000000    2.042500    12     0.1965
  3. axis:    yes    2.042500    2.042500    0.000000    12     0.1965

  Lengths:   2.888531   2.888531   2.888531
  Angles:   60.000000  60.000000  60.000000

Effective grid spacing dv^(1/3) = 0.2144

                     log10-error:    total        iterations:
           time      wfs    density  energy       fermi  poisson  magmom
iter:   1  00:43:02  +1.96           -3.934625    24              -0.0000
iter:   2  00:43:06  +1.16           -3.958888    25              -0.0000
iter:   3  00:43:10  +0.18           -3.961071    25              -0.0000
iter:   4  00:43:14  -0.61           -3.961506    23              -0.0000
iter:   5  00:43:18  -0.47           -3.961528    24              -0.0000
iter:   6  00:43:22  -1.19           -3.961532    24              -0.0000
iter:   7  00:43:27  -0.44           -3.961532    24              -0.0000
iter:   8  00:43:31  -0.48           -3.961532    25              -0.0000
iter:   9  00:43:34  -1.28           -3.961532    25              -0.0000
iter:  10  00:43:37  -2.40           -3.961532    25              -0.0000
iter:  11  00:43:38  -2.25           -3.961532    25              -0.0000
iter:  12  00:43:39  -2.91           -3.961532    25              -0.0000
iter:  13  00:43:40  -4.12           -3.961532    25              -0.0000
iter:  14  00:43:41  -4.57           -3.961532    25              -0.0000
iter:  15  00:43:42  -5.49           -3.961532    25              -0.0000
iter:  16  00:43:43  -5.84           -3.961532    25              -0.0000
iter:  17  00:43:44  -6.35           -3.961532    25              -0.0000
iter:  18  00:43:44  -7.43           -3.961532    25              -0.0000

Converged after 18 iterations.

Dipole moment: (0.000000, 0.000000, 0.000000) |e|*Ang

Total magnetic moment: -0.000000
Local magnetic moments:
   0 Ag 0.000000

Energy contributions relative to reference atoms: (reference = -144597.826354)

Kinetic:         -1.779312
Potential:       -0.598233
External:        +0.000000
XC:              -1.823940
Entropy (-ST):   -0.000114
Local:           +0.240010
--------------------------
Free energy:     -3.961589
Extrapolated:    -3.961532

Spin contamination: 0.000000 electrons
Fixed Fermi level: 8.22546

Warning: Showing only first 2 kpts
                      Up                     Down
 Kpt  Band  Eigenvalues  Occupancy  Eigenvalues  Occupancy
  0     6      4.54258    0.02000      4.54258    0.02000
  0     7      5.55836    0.02000      5.55836    0.02000
  0     8     14.23646    0.00000     14.23646    0.00000
  0     9     14.23924    0.00000     14.23924    0.00000

  1     6      4.54120    0.02000      4.54120    0.02000
  1     7      5.51203    0.02000      5.51203    0.02000
  1     8     13.74852    0.00000     13.74852    0.00000
  1     9     13.78040    0.00000     13.78040    0.00000


Timing:                              incl.     excl.
-----------------------------------------------------------
Hamiltonian:                         0.622     0.001   0.0% |
 Atomic:                             0.499     0.002   0.0% |
  XC Correction:                     0.496     0.496   0.5% |
 Calculate atomic Hamiltonians:      0.005     0.005   0.0% |
 Communicate:                        0.000     0.000   0.0% |
 Initialize Hamiltonian:             0.000     0.000   0.0% |
 Poisson:                            0.000     0.000   0.0% |
 XC 3D grid:                         0.116     0.116   0.1% |
LCAO initialization:                 4.177     0.171   0.2% |
 LCAO eigensolver:                   2.146     0.020   0.0% |
  Calculate projections:             0.007     0.007   0.0% |
  DenseAtomicCorrection:             0.038     0.038   0.0% |
  Distribute overlap matrix:         0.008     0.008   0.0% |
  Orbital Layouts:                   0.124     0.124   0.1% |
  Potential matrix:                  0.780     0.780   0.8% |
  Sum over cells:                    1.167     1.167   1.2% |
 LCAO to grid:                       1.093     1.093   1.1% |
 Set positions (LCAO WFS):           0.768     0.002   0.0% |
  Basic WFS set positions:           0.003     0.003   0.0% |
  Basis functions set positions:     0.000     0.000   0.0% |
  TCI: Calculate S, T, P:            0.763     0.763   0.8% |
PWDescriptor:                        0.023     0.023   0.0% |
Redistribute:                        0.000     0.000   0.0% |
SCF-cycle:                          87.969     7.635   8.0% |--|
 CG:                                35.009    30.736  32.0% |------------|
  CG: orthonormalize:                4.273     2.435   2.5% ||
   CG: overlap:                      1.158     1.158   1.2% |
   CG: overlap2:                     0.680     0.680   0.7% |
 Davidson:                          24.021    13.326  13.9% |-----|
  calc. matrices:                    6.032     6.032   6.3% |--|
  diagonalize:                       3.765     3.765   3.9% |-|
  rotate_psi:                        0.899     0.899   0.9% |
 Density:                            2.672     0.001   0.0% |
  Atomic density matrices:           0.057     0.057   0.1% |
  Mix:                               0.094     0.094   0.1% |
  Multipole moments:                 0.002     0.002   0.0% |
  Pseudo density:                    2.519     2.331   2.4% ||
   Symmetrize density:               0.188     0.188   0.2% |
 Hamiltonian:                        5.081     0.010   0.0% |
  Atomic:                            4.244     0.017   0.0% |
   XC Correction:                    4.227     4.227   4.4% |-|
  Calculate atomic Hamiltonians:     0.038     0.038   0.0% |
  Communicate:                       0.000     0.000   0.0% |
  Poisson:                           0.004     0.004   0.0% |
  XC 3D grid:                        0.785     0.785   0.8% |
 Orthonormalize:                     0.244     0.017   0.0% |
  Band Layouts:                      0.016     0.004   0.0% |
   Inverse Cholesky:                 0.012     0.012   0.0% |
  calc_s_matrix:                     0.039     0.039   0.0% |
  projections:                       0.135     0.135   0.1% |
  rotate_psi:                        0.037     0.037   0.0% |
 Residuals:                          1.550     1.550   1.6% ||
 Subspace diag:                     11.758     0.525   0.5% |
  Band Layouts:                      1.714     0.152   0.2% |
   Diagonalize:                      1.451     1.451   1.5% ||
   Distribute results:               0.112     0.112   0.1% |
  calc_h_matrix:                     8.245     8.245   8.6% |--|
  rotate_psi:                        1.274     1.274   1.3% ||
Set symmetry:                        0.151     0.151   0.2% |
Other:                               2.979     2.979   3.1% ||
-----------------------------------------------------------
Total:                                        95.922 100.0%

Date: Fri Feb 12 00:43:46 2021
element =  Ag
struct =  fcc
kpts =  (8,8,8)
element =  Ag
configuration =  [Kr] 4d10 5s1 5p0
valence =  ['4d', '5s']
occupations =  {'4d': 10, '5s': 1}
nls =  4d
rNum =  600
lmax =  d
*******************************************
Starting confinement parameter optimization
Adjustable parameters and initial values:
  Ag_4d.r0 : 5.480206
  Ag_5s.r0 : 5.480206
  Ag_n.r0 : 8.220309
*******************************************

OPT_VAL: 5.480205764927092   5.480205764927092   8.220308647390638
VCONF:
  Ag_4d : PowerConfinement(r0=5.480206, s=2.000000)
  Ag_5s : PowerConfinement(r0=5.480206, s=2.000000)
  Ag_n : PowerConfinement(r0=8.220309, s=2.000000)
RESIDUAL: 0.0

OPT_VAL: 5.680205764927092   5.480205764927092   8.220308647390638
VCONF:
  Ag_4d : PowerConfinement(r0=5.680206, s=2.000000)
  Ag_5s : PowerConfinement(r0=5.480206, s=2.000000)
  Ag_n : PowerConfinement(r0=8.220309, s=2.000000)
RESIDUAL: 0.0

OPT_VAL: 5.480205764927092   5.680205764927092   8.220308647390638
VCONF:
  Ag_4d : PowerConfinement(r0=5.480206, s=2.000000)
  Ag_5s : PowerConfinement(r0=5.680206, s=2.000000)
  Ag_n : PowerConfinement(r0=8.220309, s=2.000000)
RESIDUAL: 0.0

OPT_VAL: 5.480205764927092   5.480205764927092   8.420308647390637
VCONF:
  Ag_4d : PowerConfinement(r0=5.480206, s=2.000000)
  Ag_5s : PowerConfinement(r0=5.480206, s=2.000000)
  Ag_n : PowerConfinement(r0=8.420309, s=2.000000)
RESIDUAL: 0.0

OPT_VAL: 5.5052057649270925   5.480205764927092   8.220308647390638
VCONF:
  Ag_4d : PowerConfinement(r0=5.505206, s=2.000000)
  Ag_5s : PowerConfinement(r0=5.480206, s=2.000000)
  Ag_n : PowerConfinement(r0=8.220309, s=2.000000)
RESIDUAL: 0.0

OPT_VAL: 5.480205764927092   5.5052057649270925   8.220308647390638
VCONF:
  Ag_4d : PowerConfinement(r0=5.480206, s=2.000000)
  Ag_5s : PowerConfinement(r0=5.505206, s=2.000000)
  Ag_n : PowerConfinement(r0=8.220309, s=2.000000)
RESIDUAL: 0.0

OPT_VAL: 5.480205764927092   5.480205764927092   8.245308647390639
VCONF:
  Ag_4d : PowerConfinement(r0=5.480206, s=2.000000)
  Ag_5s : PowerConfinement(r0=5.480206, s=2.000000)
  Ag_n : PowerConfinement(r0=8.245309, s=2.000000)
RESIDUAL: 0.0

OPT_VAL: 5.485205764927092   5.480205764927092   8.220308647390638
VCONF:
  Ag_4d : PowerConfinement(r0=5.485206, s=2.000000)
  Ag_5s : PowerConfinement(r0=5.480206, s=2.000000)
  Ag_n : PowerConfinement(r0=8.220309, s=2.000000)
RESIDUAL: 0.0

OPT_VAL: 5.480205764927092   5.485205764927092   8.220308647390638
VCONF:
  Ag_4d : PowerConfinement(r0=5.480206, s=2.000000)
  Ag_5s : PowerConfinement(r0=5.485206, s=2.000000)
  Ag_n : PowerConfinement(r0=8.220309, s=2.000000)
RESIDUAL: 0.0

OPT_VAL: 5.480205764927092   5.480205764927092   8.225308647390639
VCONF:
  Ag_4d : PowerConfinement(r0=5.480206, s=2.000000)
  Ag_5s : PowerConfinement(r0=5.480206, s=2.000000)
  Ag_n : PowerConfinement(r0=8.225309, s=2.000000)
RESIDUAL: 0.0

*******************************************
Optimization finished after 10 iterations
Adjustable parameters and final values:
  Ag_4d.r0 : 5.480206
  Ag_5s.r0 : 5.480206
  Ag_n.r0 : 8.220309
*******************************************

VCONF:
  Ag_4d : PowerConfinement(r0=5.480206, s=2.000000)
  Ag_5s : PowerConfinement(r0=5.480206, s=2.000000)
  Ag_n : PowerConfinement(r0=8.220309, s=2.000000)
