
     Program PWSCF v.6.0 (svn rev. 13079) starts on 25Feb2021 at 10:56: 5 

     This program is part of the open-source Quantum ESPRESSO suite
     for quantum simulation of materials; please cite
         "P. Giannozzi et al., J. Phys.:Condens. Matter 21 395502 (2009);
          URL http://www.quantum-espresso.org", 
     in publications or presentations arising from this work. More details at
     http://www.quantum-espresso.org/quote

     Parallel version (MPI), running on     1 processors
     Reading input from espresso.pwi
Warning: card &IONS ignored
Warning: card / ignored
Warning: card &CELL ignored
Warning: card / ignored

     Current dimensions of program PWSCF are:
     Max number of different atomic species (ntypx) = 10
     Max number of k-points (npk) =  40000
     Max angular momentum in pseudopotentials (lmaxx) =  3
     Message from routine input:
     WARNING: "startingwfc" set to atomic+random may spoil restart

     Atomic positions and unit cell read from directory:
     ./pwscf.save/


     IMPORTANT: XC functional enforced from input :
     Exchange-correlation      = PBE ( 1  4  3  4 0 0)
     Any further DFT definition will be discarded
     Please, verify this is what you really want


     Subspace diagonalization in iterative solution of the eigenvalue problem:
     a serial algorithm will be used


     G-vector sticks info
     --------------------
     sticks:   dense  smooth     PW     G-vecs:    dense   smooth      PW
     Sum         253     199     61                 5203     3741     699



     bravais-lattice index     =            0
     lattice parameter (alat)  =       4.3199  a.u.
     unit-cell volume          =     109.4580 (a.u.)^3
     number of atoms/cell      =            2
     number of atomic types    =            1
     number of electrons       =         8.00
     number of Kohn-Sham states=            8
     kinetic-energy cutoff     =      40.0000  Ry
     charge density cutoff     =     200.0000  Ry
     Exchange-correlation      = PBE ( 1  4  3  4 0 0)

     celldm(1)=   4.319914  celldm(2)=   0.000000  celldm(3)=   0.000000
     celldm(4)=   0.000000  celldm(5)=   0.000000  celldm(6)=   0.000000

     crystal axes: (cart. coord. in units of alat)
               a(1) = (   1.000000   0.000000   0.000000 )  
               a(2) = (  -0.500000   0.866025   0.000000 )  
               a(3) = (   0.000000   0.000000   1.567804 )  

     reciprocal axes: (cart. coord. in units 2 pi/alat)
               b(1) = (  1.000000  0.577350 -0.000000 )  
               b(2) = (  0.000000  1.154701  0.000000 )  
               b(3) = (  0.000000 -0.000000  0.637835 )  


     PseudoPot. # 1 for Be read from file:
     /home/inukai/tango/tests/1element/qe_fit_v2_Be/../pseudo/be_pbe_v1.4.uspp.F.UPF
     MD5 check sum: 5ecff1440924c7c98ad504bef30f5264
     Pseudo is Ultrasoft, Zval =  4.0
     Generated by new atomic code, or converted to UPF format
     Using radial grid of  769 points,  6 beta functions with: 
                l(1) =   0
                l(2) =   0
                l(3) =   0
                l(4) =   1
                l(5) =   1
                l(6) =   2
     Q(r) pseudized with 10 coefficients,  rinner =    1.000   1.000   1.000
                                                       1.000   1.000

     atomic species   valence    mass     pseudopotential
        Be             4.00     9.01218     Be( 1.00)

     12 Sym. Ops. (no inversion) found
          (note: 12 additional sym.ops. were found but ignored
           their fractional translations are incommensurate with FFT grid)

                                    s                        frac. trans.

      isym =  1     identity                                     

 cryst.   s( 1) = (     1          0          0      )
                  (     0          1          0      )
                  (     0          0          1      )

 cart.    s( 1) = (  1.0000000 -0.0000000  0.0000000 )
                  (  0.0000000  1.0000000  0.0000000 )
                  (  0.0000000  0.0000000  1.0000000 )


      isym =  2     180 deg rotation - cart. axis [0,1,0]        

 cryst.   s( 2) = (    -1          0          0      )
                  (     1          1          0      )
                  (     0          0         -1      )

 cart.    s( 2) = ( -1.0000000  0.0000000  0.0000000 )
                  (  0.0000000  1.0000000  0.0000000 )
                  (  0.0000000  0.0000000 -1.0000000 )


      isym =  3     120 deg rotation - cryst. axis [0,0,1]       

 cryst.   s( 3) = (     0          1          0      )
                  (    -1         -1          0      )
                  (     0          0          1      )

 cart.    s( 3) = ( -0.5000000 -0.8660254  0.0000000 )
                  (  0.8660254 -0.5000000  0.0000000 )
                  (  0.0000000  0.0000000  1.0000000 )


      isym =  4     120 deg rotation - cryst. axis [0,0,-1]      

 cryst.   s( 4) = (    -1         -1          0      )
                  (     1          0          0      )
                  (     0          0          1      )

 cart.    s( 4) = ( -0.5000000  0.8660254  0.0000000 )
                  ( -0.8660254 -0.5000000  0.0000000 )
                  (  0.0000000  0.0000000  1.0000000 )


      isym =  5     180 deg rotation - cryst. axis [1,-1,0]      

 cryst.   s( 5) = (     0         -1          0      )
                  (    -1          0          0      )
                  (     0          0         -1      )

 cart.    s( 5) = (  0.5000000 -0.8660254  0.0000000 )
                  ( -0.8660254 -0.5000000  0.0000000 )
                  (  0.0000000  0.0000000 -1.0000000 )


      isym =  6     180 deg rotation - cryst. axis [2,1,0]       

 cryst.   s( 6) = (     1          1          0      )
                  (     0         -1          0      )
                  (     0          0         -1      )

 cart.    s( 6) = (  0.5000000  0.8660254  0.0000000 )
                  (  0.8660254 -0.5000000  0.0000000 )
                  (  0.0000000  0.0000000 -1.0000000 )


      isym =  7     inv. 180 deg rotation - cart. axis [0,0,1]   

 cryst.   s( 7) = (     1          0          0      )
                  (     0          1          0      )
                  (     0          0         -1      )

 cart.    s( 7) = (  1.0000000 -0.0000000  0.0000000 )
                  (  0.0000000  1.0000000  0.0000000 )
                  (  0.0000000  0.0000000 -1.0000000 )


      isym =  8     inv. 180 deg rotation - cart. axis [1,0,0]   

 cryst.   s( 8) = (    -1          0          0      )
                  (     1          1          0      )
                  (     0          0          1      )

 cart.    s( 8) = ( -1.0000000  0.0000000  0.0000000 )
                  (  0.0000000  1.0000000  0.0000000 )
                  (  0.0000000  0.0000000  1.0000000 )


      isym =  9     inv.  60 deg rotation - cryst. axis [0,0,1]  

 cryst.   s( 9) = (    -1         -1          0      )
                  (     1          0          0      )
                  (     0          0         -1      )

 cart.    s( 9) = ( -0.5000000  0.8660254  0.0000000 )
                  ( -0.8660254 -0.5000000  0.0000000 )
                  (  0.0000000  0.0000000 -1.0000000 )


      isym = 10     inv.  60 deg rotation - cryst. axis [0,0,-1] 

 cryst.   s(10) = (     0          1          0      )
                  (    -1         -1          0      )
                  (     0          0         -1      )

 cart.    s(10) = ( -0.5000000 -0.8660254  0.0000000 )
                  (  0.8660254 -0.5000000  0.0000000 )
                  (  0.0000000  0.0000000 -1.0000000 )


      isym = 11     inv. 180 deg rotation - cryst. axis [0,1,0]  

 cryst.   s(11) = (     1          1          0      )
                  (     0         -1          0      )
                  (     0          0          1      )

 cart.    s(11) = (  0.5000000  0.8660254  0.0000000 )
                  (  0.8660254 -0.5000000  0.0000000 )
                  (  0.0000000  0.0000000  1.0000000 )


      isym = 12     inv. 180 deg rotation - cryst. axis [1,1,0]  

 cryst.   s(12) = (     0         -1          0      )
                  (    -1          0          0      )
                  (     0          0          1      )

 cart.    s(12) = (  0.5000000 -0.8660254  0.0000000 )
                  ( -0.8660254 -0.5000000  0.0000000 )
                  (  0.0000000  0.0000000  1.0000000 )


   Cartesian axes

     site n.     atom                  positions (alat units)
         1           Be  tau(   1) = (   0.0000000   0.0000000   0.0000000  )
         2           Be  tau(   2) = (   0.0000000   0.5773503   0.7839020  )

   Crystallographic axes

     site n.     atom                  positions (cryst. coord.)
         1           Be  tau(   1) = (  0.0000000  0.0000000  0.0000000  )
         2           Be  tau(   2) = (  0.3333333  0.6666667  0.5000000  )

     number of k points=    50  gaussian smearing, width (Ry)=  0.0010
                       cart. coord. in units 2pi/alat
        k(    1) = (   0.0000000   0.0000000   0.0000000), wk =   0.0400000
        k(    2) = (   0.0357143   0.0206197   0.0000000), wk =   0.0400000
        k(    3) = (   0.0714286   0.0412393   0.0000000), wk =   0.0400000
        k(    4) = (   0.1071429   0.0618590   0.0000000), wk =   0.0400000
        k(    5) = (   0.1428571   0.0824786   0.0000000), wk =   0.0400000
        k(    6) = (   0.1785714   0.1030983   0.0000000), wk =   0.0400000
        k(    7) = (   0.2142857   0.1237179   0.0000000), wk =   0.0400000
        k(    8) = (   0.2500000   0.1443376   0.0000000), wk =   0.0400000
        k(    9) = (   0.2857143   0.1649572   0.0000000), wk =   0.0400000
        k(   10) = (   0.3214286   0.1855769   0.0000000), wk =   0.0400000
        k(   11) = (   0.3571429   0.2061965   0.0000000), wk =   0.0400000
        k(   12) = (   0.3928571   0.2268162   0.0000000), wk =   0.0400000
        k(   13) = (   0.4285714   0.2474358   0.0000000), wk =   0.0400000
        k(   14) = (   0.4642857   0.2680555   0.0000000), wk =   0.0400000
        k(   15) = (   0.5000000   0.2886751   0.0000000), wk =   0.0400000
        k(   16) = (   0.4791667   0.3247595   0.0000000), wk =   0.0400000
        k(   17) = (   0.4583333   0.3608439   0.0000000), wk =   0.0400000
        k(   18) = (   0.4375000   0.3969283   0.0000000), wk =   0.0400000
        k(   19) = (   0.4166667   0.4330127   0.0000000), wk =   0.0400000
        k(   20) = (   0.3958333   0.4690971   0.0000000), wk =   0.0400000
        k(   21) = (   0.3750000   0.5051815   0.0000000), wk =   0.0400000
        k(   22) = (   0.3541667   0.5412659   0.0000000), wk =   0.0400000
        k(   23) = (   0.3333333   0.5773503   0.0000000), wk =   0.0400000
        k(   24) = (   0.3148148   0.5452753   0.0000000), wk =   0.0400000
        k(   25) = (   0.2962963   0.5132002   0.0000000), wk =   0.0400000
        k(   26) = (   0.2777778   0.4811252   0.0000000), wk =   0.0400000
        k(   27) = (   0.2592593   0.4490502   0.0000000), wk =   0.0400000
        k(   28) = (   0.2407407   0.4169752   0.0000000), wk =   0.0400000
        k(   29) = (   0.2222222   0.3849002   0.0000000), wk =   0.0400000
        k(   30) = (   0.2037037   0.3528252   0.0000000), wk =   0.0400000
        k(   31) = (   0.1851852   0.3207501   0.0000000), wk =   0.0400000
        k(   32) = (   0.1666667   0.2886751   0.0000000), wk =   0.0400000
        k(   33) = (   0.1481481   0.2566001   0.0000000), wk =   0.0400000
        k(   34) = (   0.1296296   0.2245251   0.0000000), wk =   0.0400000
        k(   35) = (   0.1111111   0.1924501   0.0000000), wk =   0.0400000
        k(   36) = (   0.0925926   0.1603751   0.0000000), wk =   0.0400000
        k(   37) = (   0.0740741   0.1283001   0.0000000), wk =   0.0400000
        k(   38) = (   0.0555556   0.0962250   0.0000000), wk =   0.0400000
        k(   39) = (   0.0370370   0.0641500   0.0000000), wk =   0.0400000
        k(   40) = (   0.0185185   0.0320750   0.0000000), wk =   0.0400000
        k(   41) = (   0.0000000   0.0000000   0.0000000), wk =   0.0400000
        k(   42) = (   0.0000000   0.0000000   0.0354353), wk =   0.0400000
        k(   43) = (   0.0000000   0.0000000   0.0708705), wk =   0.0400000
        k(   44) = (   0.0000000   0.0000000   0.1063058), wk =   0.0400000
        k(   45) = (   0.0000000   0.0000000   0.1417411), wk =   0.0400000
        k(   46) = (   0.0000000   0.0000000   0.1771763), wk =   0.0400000
        k(   47) = (   0.0000000   0.0000000   0.2126116), wk =   0.0400000
        k(   48) = (   0.0000000   0.0000000   0.2480469), wk =   0.0400000
        k(   49) = (   0.0000000   0.0000000   0.2834821), wk =   0.0400000
        k(   50) = (   0.0000000   0.0000000   0.3189174), wk =   0.0400000

                       cryst. coord.
        k(    1) = (   0.0000000   0.0000000   0.0000000), wk =   0.0400000
        k(    2) = (   0.0357143   0.0000000   0.0000000), wk =   0.0400000
        k(    3) = (   0.0714286  -0.0000000   0.0000000), wk =   0.0400000
        k(    4) = (   0.1071429   0.0000000   0.0000000), wk =   0.0400000
        k(    5) = (   0.1428571  -0.0000000   0.0000000), wk =   0.0400000
        k(    6) = (   0.1785714  -0.0000000   0.0000000), wk =   0.0400000
        k(    7) = (   0.2142857   0.0000000   0.0000000), wk =   0.0400000
        k(    8) = (   0.2500000  -0.0000000   0.0000000), wk =   0.0400000
        k(    9) = (   0.2857143  -0.0000000   0.0000000), wk =   0.0400000
        k(   10) = (   0.3214286  -0.0000000   0.0000000), wk =   0.0400000
        k(   11) = (   0.3571429  -0.0000000   0.0000000), wk =   0.0400000
        k(   12) = (   0.3928571   0.0000000   0.0000000), wk =   0.0400000
        k(   13) = (   0.4285714   0.0000000   0.0000000), wk =   0.0400000
        k(   14) = (   0.4642857  -0.0000000   0.0000000), wk =   0.0400000
        k(   15) = (   0.5000000  -0.0000000   0.0000000), wk =   0.0400000
        k(   16) = (   0.4791667   0.0416667   0.0000000), wk =   0.0400000
        k(   17) = (   0.4583333   0.0833333   0.0000000), wk =   0.0400000
        k(   18) = (   0.4375000   0.1250000   0.0000000), wk =   0.0400000
        k(   19) = (   0.4166667   0.1666667   0.0000000), wk =   0.0400000
        k(   20) = (   0.3958333   0.2083333   0.0000000), wk =   0.0400000
        k(   21) = (   0.3750000   0.2500000   0.0000000), wk =   0.0400000
        k(   22) = (   0.3541667   0.2916667   0.0000000), wk =   0.0400000
        k(   23) = (   0.3333333   0.3333333   0.0000000), wk =   0.0400000
        k(   24) = (   0.3148148   0.3148148   0.0000000), wk =   0.0400000
        k(   25) = (   0.2962963   0.2962963   0.0000000), wk =   0.0400000
        k(   26) = (   0.2777778   0.2777778   0.0000000), wk =   0.0400000
        k(   27) = (   0.2592593   0.2592593   0.0000000), wk =   0.0400000
        k(   28) = (   0.2407407   0.2407407   0.0000000), wk =   0.0400000
        k(   29) = (   0.2222222   0.2222222   0.0000000), wk =   0.0400000
        k(   30) = (   0.2037037   0.2037037   0.0000000), wk =   0.0400000
        k(   31) = (   0.1851852   0.1851852   0.0000000), wk =   0.0400000
        k(   32) = (   0.1666667   0.1666667   0.0000000), wk =   0.0400000
        k(   33) = (   0.1481481   0.1481481   0.0000000), wk =   0.0400000
        k(   34) = (   0.1296296   0.1296296   0.0000000), wk =   0.0400000
        k(   35) = (   0.1111111   0.1111111   0.0000000), wk =   0.0400000
        k(   36) = (   0.0925926   0.0925926   0.0000000), wk =   0.0400000
        k(   37) = (   0.0740741   0.0740741   0.0000000), wk =   0.0400000
        k(   38) = (   0.0555556   0.0555556   0.0000000), wk =   0.0400000
        k(   39) = (   0.0370370   0.0370370   0.0000000), wk =   0.0400000
        k(   40) = (   0.0185185   0.0185185   0.0000000), wk =   0.0400000
        k(   41) = (   0.0000000   0.0000000   0.0000000), wk =   0.0400000
        k(   42) = (   0.0000000   0.0000000   0.0555556), wk =   0.0400000
        k(   43) = (   0.0000000   0.0000000   0.1111111), wk =   0.0400000
        k(   44) = (   0.0000000   0.0000000   0.1666667), wk =   0.0400000
        k(   45) = (   0.0000000   0.0000000   0.2222222), wk =   0.0400000
        k(   46) = (   0.0000000   0.0000000   0.2777778), wk =   0.0400000
        k(   47) = (   0.0000000   0.0000000   0.3333333), wk =   0.0400000
        k(   48) = (   0.0000000   0.0000000   0.3888889), wk =   0.0400000
        k(   49) = (   0.0000000   0.0000000   0.4444444), wk =   0.0400000
        k(   50) = (   0.0000000   0.0000000   0.5000000), wk =   0.0400000

     Dense  grid:     5203 G-vectors     FFT dimensions: (  20,  20,  32)

     Smooth grid:     3741 G-vectors     FFT dimensions: (  18,  18,  27)

     Estimated max dynamical RAM per process >       5.11Mb

     The potential is recalculated from file :
     ./pwscf.save/charge-density.dat

     Starting wfc are   10 randomized atomic wfcs

     Band Structure Calculation
     Davidson diagonalization with overlap

     Computing kpt #:     1
     total cpu time spent up to now is        0.5 secs

     Computing kpt #:     2
     total cpu time spent up to now is        0.6 secs

     Computing kpt #:     3
     total cpu time spent up to now is        0.7 secs

     Computing kpt #:     4
     total cpu time spent up to now is        0.8 secs

     Computing kpt #:     5
     total cpu time spent up to now is        0.9 secs

     Computing kpt #:     6
     total cpu time spent up to now is        1.0 secs

     Computing kpt #:     7
     total cpu time spent up to now is        1.1 secs

     Computing kpt #:     8
     total cpu time spent up to now is        1.2 secs

     Computing kpt #:     9
     total cpu time spent up to now is        1.3 secs

     Computing kpt #:    10
     total cpu time spent up to now is        1.4 secs

     Computing kpt #:    11
     total cpu time spent up to now is        1.5 secs

     Computing kpt #:    12
     total cpu time spent up to now is        1.6 secs

     Computing kpt #:    13
     total cpu time spent up to now is        1.6 secs

     Computing kpt #:    14
     total cpu time spent up to now is        1.7 secs

     Computing kpt #:    15
     total cpu time spent up to now is        1.8 secs

     Computing kpt #:    16
     total cpu time spent up to now is        1.9 secs

     Computing kpt #:    17
     total cpu time spent up to now is        2.0 secs

     Computing kpt #:    18
     total cpu time spent up to now is        2.1 secs

     Computing kpt #:    19
     total cpu time spent up to now is        2.2 secs

     Computing kpt #:    20
     total cpu time spent up to now is        2.3 secs

     Computing kpt #:    21
     total cpu time spent up to now is        2.3 secs

     Computing kpt #:    22
     total cpu time spent up to now is        2.4 secs

     Computing kpt #:    23
     total cpu time spent up to now is        2.5 secs

     Computing kpt #:    24
     total cpu time spent up to now is        2.6 secs

     Computing kpt #:    25
     total cpu time spent up to now is        2.7 secs

     Computing kpt #:    26
     total cpu time spent up to now is        2.8 secs

     Computing kpt #:    27
     total cpu time spent up to now is        2.9 secs

     Computing kpt #:    28
     total cpu time spent up to now is        2.9 secs

     Computing kpt #:    29
     total cpu time spent up to now is        3.0 secs

     Computing kpt #:    30
     total cpu time spent up to now is        3.1 secs

     Computing kpt #:    31
     total cpu time spent up to now is        3.1 secs

     Computing kpt #:    32
     total cpu time spent up to now is        3.2 secs

     Computing kpt #:    33
     total cpu time spent up to now is        3.3 secs

     Computing kpt #:    34
     total cpu time spent up to now is        3.4 secs

     Computing kpt #:    35
     total cpu time spent up to now is        3.6 secs

     Computing kpt #:    36
     total cpu time spent up to now is        3.6 secs

     Computing kpt #:    37
     total cpu time spent up to now is        3.7 secs

     Computing kpt #:    38
     total cpu time spent up to now is        3.8 secs

     Computing kpt #:    39
     total cpu time spent up to now is        3.9 secs

     Computing kpt #:    40
     total cpu time spent up to now is        4.0 secs

     Computing kpt #:    41
     total cpu time spent up to now is        4.1 secs

     Computing kpt #:    42
     total cpu time spent up to now is        4.2 secs

     Computing kpt #:    43
     total cpu time spent up to now is        4.3 secs

     Computing kpt #:    44
     total cpu time spent up to now is        4.4 secs

     Computing kpt #:    45
     total cpu time spent up to now is        4.5 secs

     Computing kpt #:    46
     total cpu time spent up to now is        4.5 secs

     Computing kpt #:    47
     total cpu time spent up to now is        4.6 secs

     Computing kpt #:    48
     total cpu time spent up to now is        4.7 secs

     Computing kpt #:    49
     total cpu time spent up to now is        4.8 secs

     Computing kpt #:    50
     total cpu time spent up to now is        4.9 secs

     ethr =  1.25E-09,  avg # of iterations = 12.0

     total cpu time spent up to now is        4.9 secs

     End of band structure calculation

          k = 0.0000 0.0000 0.0000 (   463 PWs)   bands (ev):

   -91.4014 -91.3750  -2.7292   4.1667   9.5804  24.0970  24.0970  26.9224

          k = 0.0357 0.0206 0.0000 (   475 PWs)   bands (ev):

   -91.4014 -91.3755  -2.6931   4.2138   9.5918  23.7855  23.8514  26.9281

          k = 0.0714 0.0412 0.0000 (   469 PWs)   bands (ev):

   -91.4004 -91.3753  -2.5845   4.3550   9.6252  22.9426  23.2658  26.9257

          k = 0.1071 0.0619 0.0000 (   473 PWs)   bands (ev):

   -91.3993 -91.3752  -2.4035   4.5903   9.6774  21.7523  22.5442  26.8824

          k = 0.1429 0.0825 0.0000 (   473 PWs)   bands (ev):

   -91.3979 -91.3748  -2.1500   4.9192   9.7416  20.3845  21.7936  26.7577

          k = 0.1786 0.1031 0.0000 (   463 PWs)   bands (ev):

   -91.3957 -91.3741  -1.8239   5.3413   9.8039  18.9663  21.0643  26.4475

          k = 0.2143 0.1237 0.0000 (   465 PWs)   bands (ev):

   -91.3938 -91.3736  -1.4253   5.8558   9.8378  17.5965  20.3824  25.5467

          k = 0.2500 0.1443 0.0000 (   468 PWs)   bands (ev):

   -91.3919 -91.3731  -0.9546   6.4614   9.7945  16.3691  19.7629  24.1114

          k = 0.2857 0.1650 0.0000 (   470 PWs)   bands (ev):

   -91.3897 -91.3727  -0.4125   7.1564   9.5963  15.3905  19.2149  22.5713

          k = 0.3214 0.1856 0.0000 (   466 PWs)   bands (ev):

   -91.3875 -91.3722   0.1993   7.9376   9.1598  14.7609  18.7445  21.0015

          k = 0.3571 0.2062 0.0000 (   468 PWs)   bands (ev):

   -91.3855 -91.3721   0.8774   8.4679   8.7992  14.5061  18.3555  19.4546

          k = 0.3929 0.2268 0.0000 (   462 PWs)   bands (ev):

   -91.3834 -91.3719   1.6141   7.5983   9.7294  14.5478  17.9711  18.0507

          k = 0.4286 0.2474 0.0000 (   460 PWs)   bands (ev):

   -91.3819 -91.3718   2.3899   6.6644  10.6980  14.7622  16.5981  17.8319

          k = 0.4643 0.2681 0.0000 (   458 PWs)   bands (ev):

   -91.3806 -91.3721   3.1376   5.7993  11.6045  15.0092  15.4455  17.7002

          k = 0.5000 0.2887 0.0000 (   460 PWs)   bands (ev):

   -91.3805 -91.3721   3.5447   5.3496  12.0662  14.9013  15.1236  17.6563

          k = 0.4792 0.3248 0.0000 (   462 PWs)   bands (ev):

   -91.3803 -91.3722   3.5908   5.3854  12.1136  14.9378  15.1268  16.6434

          k = 0.4583 0.3608 0.0000 (   468 PWs)   bands (ev):

   -91.3803 -91.3723   3.7287   5.4921  12.2558  15.0447  15.1360  15.2367

          k = 0.4375 0.3969 0.0000 (   464 PWs)   bands (ev):

   -91.3796 -91.3723   3.9579   5.6684  12.4926  13.7793  15.1495  15.2130

          k = 0.4167 0.4330 0.0000 (   464 PWs)   bands (ev):

   -91.3789 -91.3724   4.2767   5.9116  12.3295  12.8236  15.1647  15.4228

          k = 0.3958 0.4691 0.0000 (   464 PWs)   bands (ev):

   -91.3781 -91.3727   4.6815   6.2179  10.9204  13.2483  15.1784  15.6316

          k = 0.3750 0.5052 0.0000 (   468 PWs)   bands (ev):

   -91.3771 -91.3734   5.1633   6.5817   9.5779  13.7659  15.1876  15.7499

          k = 0.3542 0.5413 0.0000 (   468 PWs)   bands (ev):

   -91.3760 -91.3740   5.6886   6.9952   8.3457  14.3754  15.1908  15.6154

          k = 0.3333 0.5774 0.0000 (   462 PWs)   bands (ev):

   -91.3748 -91.3747   6.0392   7.4473   7.4474  15.0755  15.0755  15.1904

          k = 0.3148 0.5453 0.0000 (   470 PWs)   bands (ev):

   -91.3760 -91.3741   5.5884   7.5473   7.8697  14.2924  15.1938  15.7723

          k = 0.2963 0.5132 0.0000 (   470 PWs)   bands (ev):

   -91.3773 -91.3733   4.7383   8.1754   8.2969  13.3572  15.2136  16.5375

          k = 0.2778 0.4811 0.0000 (   470 PWs)   bands (ev):

   -91.3786 -91.3726   3.8605   8.7112   8.9596  12.3703  15.2680  17.3688

          k = 0.2593 0.4491 0.0000 (   470 PWs)   bands (ev):

   -91.3800 -91.3723   3.0190   9.0918   9.8349  11.3878  15.3804  18.2630

          k = 0.2407 0.4170 0.0000 (   474 PWs)   bands (ev):

   -91.3817 -91.3722   2.2286   9.4172  10.4393  10.7845  15.5762  19.2159

          k = 0.2222 0.3849 0.0000 (   480 PWs)   bands (ev):

   -91.3836 -91.3723   1.4943   9.5406   9.6702  11.8009  15.8765  20.2218

          k = 0.2037 0.3528 0.0000 (   480 PWs)   bands (ev):

   -91.3856 -91.3724   0.8180   8.7011   9.8431  12.8782  16.2927  21.2723

          k = 0.1852 0.3208 0.0000 (   472 PWs)   bands (ev):

   -91.3873 -91.3725   0.2006   7.9263   9.9395  14.0108  16.8238  22.3560

          k = 0.1667 0.2887 0.0000 (   469 PWs)   bands (ev):

   -91.3892 -91.3727  -0.3576   7.2198   9.9723  15.1918  17.4588  23.4561

          k = 0.1481 0.2566 0.0000 (   473 PWs)   bands (ev):

   -91.3915 -91.3731  -0.8566   6.5840   9.9578  16.4119  18.1816  24.5486

          k = 0.1296 0.2245 0.0000 (   465 PWs)   bands (ev):

   -91.3932 -91.3734  -1.2964   6.0205   9.9126  17.6589  18.9748  25.6006

          k = 0.1111 0.1925 0.0000 (   467 PWs)   bands (ev):

   -91.3951 -91.3740  -1.6771   5.5304   9.8503  18.9150  19.8206  26.5603

          k = 0.0926 0.1604 0.0000 (   469 PWs)   bands (ev):

   -91.3969 -91.3744  -1.9990   5.1147   9.7823  20.1546  20.7003  26.8173

          k = 0.0741 0.1283 0.0000 (   467 PWs)   bands (ev):

   -91.3983 -91.3748  -2.2620   4.7739   9.7168  21.3393  21.5906  26.9354

          k = 0.0556 0.0962 0.0000 (   475 PWs)   bands (ev):

   -91.3999 -91.3752  -2.4665   4.5084   9.6601  22.4127  22.4581  26.9603

          k = 0.0370 0.0642 0.0000 (   469 PWs)   bands (ev):

   -91.4006 -91.3754  -2.6125   4.3186   9.6168  23.2474  23.2950  26.9465

          k = 0.0185 0.0321 0.0000 (   475 PWs)   bands (ev):

   -91.4014 -91.3755  -2.7001   4.2046   9.5896  23.8535  23.8867  26.9288

          k = 0.0000 0.0000 0.0000 (   463 PWs)   bands (ev):

   -91.4014 -91.3750  -2.7292   4.1667   9.5804  24.0970  24.0970  26.9224

          k = 0.0000 0.0000 0.0354 (   469 PWs)   bands (ev):

   -91.4011 -91.3757  -2.7026   3.9966   9.8122  24.1209  24.1209  26.9142

          k = 0.0000 0.0000 0.0709 (   469 PWs)   bands (ev):

   -91.4005 -91.3763  -2.6227   3.5561  10.4376  24.1931  24.1931  26.8877

          k = 0.0000 0.0000 0.1063 (   475 PWs)   bands (ev):

   -91.3998 -91.3774  -2.4895   2.9704  11.3304  24.3117  24.3117  26.8371

          k = 0.0000 0.0000 0.1417 (   476 PWs)   bands (ev):

   -91.3986 -91.3787  -2.3031   2.3299  12.3987  24.4740  24.4740  26.3029

          k = 0.0000 0.0000 0.1772 (   482 PWs)   bands (ev):

   -91.3972 -91.3806  -2.0634   1.6842  13.5901  24.6758  24.6758  24.9994

          k = 0.0000 0.0000 0.2126 (   488 PWs)   bands (ev):

   -91.3954 -91.3827  -1.7706   1.0594  14.8751  23.5843  24.9112  24.9112

          k = 0.0000 0.0000 0.2480 (   488 PWs)   bands (ev):

   -91.3934 -91.3848  -1.4248   0.4696  16.2345  22.1079  25.1729  25.1729

          k = 0.0000 0.0000 0.2835 (   494 PWs)   bands (ev):

   -91.3914 -91.3870  -1.0267  -0.0774  17.6533  20.6090  25.4508  25.4508

          k = 0.0000 0.0000 0.3189 (   494 PWs)   bands (ev):

   -91.3893 -91.3892  -0.5770  -0.5770  19.1170  19.1170  25.7326  25.7327

     Writing output data file pwscf.save

     init_run     :      0.45s CPU      0.32s WALL (       1 calls)
     electrons    :      7.25s CPU      4.45s WALL (       1 calls)

     Called by init_run:
     wfcinit      :      0.00s CPU      0.00s WALL (       1 calls)
     wfcinit:atom :      0.00s CPU      0.01s WALL (      50 calls)
     wfcinit:wfcr :      0.88s CPU      0.48s WALL (      50 calls)
     potinit      :      0.02s CPU      0.02s WALL (       1 calls)

     Called by electrons:
     c_bands      :      7.25s CPU      4.45s WALL (       1 calls)
     v_of_rho     :      0.02s CPU      0.01s WALL (       1 calls)
     v_h          :      0.00s CPU      0.00s WALL (       1 calls)
     v_xc         :      0.02s CPU      0.01s WALL (       1 calls)
     newd         :      0.00s CPU      0.02s WALL (       1 calls)

     Called by c_bands:
     init_us_2    :      0.08s CPU      0.02s WALL (      50 calls)
     cegterg      :      6.11s CPU      3.81s WALL (      51 calls)

     Called by sum_band:

     Called by *egterg:
     h_psi        :      5.61s CPU      3.22s WALL (     700 calls)
     s_psi        :      0.12s CPU      0.07s WALL (     700 calls)
     g_psi        :      0.00s CPU      0.02s WALL (     599 calls)
     cdiaghg      :      0.58s CPU      0.67s WALL (     649 calls)
     cegterg:over :      0.23s CPU      0.10s WALL (     599 calls)
     cegterg:upda :      0.09s CPU      0.08s WALL (     599 calls)
     cegterg:last :      0.19s CPU      0.05s WALL (     146 calls)

     Called by h_psi:
     h_psi:pot    :      5.56s CPU      3.20s WALL (     700 calls)
     h_psi:calbec :      0.19s CPU      0.09s WALL (     700 calls)
     vloc_psi     :      5.30s CPU      3.01s WALL (     700 calls)
     add_vuspsi   :      0.05s CPU      0.08s WALL (     700 calls)

     General routines
     calbec       :      0.19s CPU      0.08s WALL (     700 calls)
     fft          :      0.00s CPU      0.00s WALL (      12 calls)
     ffts         :      0.00s CPU      0.00s WALL (       1 calls)
     fftw         :      4.97s CPU      2.80s WALL (    7224 calls)
     interpolate  :      0.00s CPU      0.00s WALL (       1 calls)
     davcio       :      0.00s CPU      0.00s WALL (      50 calls)

     Parallel routines
     fft_scatter  :      0.19s CPU      0.11s WALL (    7237 calls)

     PWSCF        :     8.08s CPU         5.21s WALL


   This run was terminated on:  10:56:10  25Feb2021            

=------------------------------------------------------------------------------=
   JOB DONE.
=------------------------------------------------------------------------------=
