element =  Cu
struct =  fcc
nbands =  -4
path =  WLGXWK
kpts =  (8,8,8)
lattice constant a =  3.615
lattice constant b =  3.615
lattice constant c =  3.615
alpha angle =  90.0

  ___ ___ ___ _ _ _  
 |   |   |_  | | | | 
 | | | | | . | | | | 
 |__ |  _|___|_____|  1.3.1b1
 |___|_|             

User:   inukai@DESKTOP-12SE80T
Date:   Thu Feb 11 18:24:21 2021
Arch:   x86_64
Pid:    12704
Python: 3.6.9
gpaw:   /usr/lib/python3/dist-packages/gpaw
_gpaw:  /usr/lib/python3/dist-packages/_gpaw.cpython-36m-x86_64-linux-gnu.so
ase:    /home/inukai/hotcent/ase-3.19.3/ase (version 3.19.3)
numpy:  /home/inukai/.local/lib/python3.6/site-packages/numpy (version 1.19.5)
scipy:  /home/inukai/.local/lib/python3.6/site-packages/scipy (version 1.5.4)
units:  Angstrom and eV
cores:  1

Input parameters:
  kpts: [8 8 8]
  maxiter: 1500
  mixer: {backend: pulay,
          beta: 0.01,
          method: separate,
          nmaxold: 11,
          weight: 100.0}
  mode: {ecut: 400.0,
         name: pw}
  occupations: {name: fermi-dirac,
                width: 0.02}
  spinpol: True
  xc: PBE

System changes: positions, numbers, cell, pbc, initial_charges, initial_magmoms 

Initialize ...

Cu-setup:
  name: Copper
  id: f1c4d45d90492f1bbfdcb091e8418fdf
  Z: 29
  valence: 11
  core: 18
  charge: 0.0
  file: /usr/share/gpaw-setups/Cu.PBE.gz
  cutoffs: 1.06(comp), 2.06(filt), 2.43(core), lmax=2
  valence states:
                energy  radius
    4s(1.00)    -4.609   1.164
    4p(0.00)    -0.698   1.164
    3d(10.00)    -5.039   1.058
    *s          22.603   1.164
    *p          26.513   1.164
    *d          22.172   1.058

  Using partial waves for Cu as LCAO basis

Reference energy: -45021.451841

Spin-polarized calculation.
Magnetic moment:  0.000000

Occupation numbers:
  Fermi-Dirac: width=0.0200 eV

Convergence criteria:
  Maximum total energy change: 0.0005 eV / electron
  Maximum integral of absolute density change: 0.0001 electrons
  Maximum integral of absolute eigenstate change: 4e-08 eV^2
  Maximum number of iterations: 1500

Symmetries present (total): 48

  ( 1  0  0)  ( 1  0  0)  ( 1  0  0)  ( 1  0  0)  ( 1  0 -1)  ( 1  0 -1)
  ( 1  0 -1)  ( 1 -1  0)  ( 0  1  0)  ( 0  0  1)  ( 1  0  0)  ( 1 -1  0)
  ( 1 -1  0)  ( 1  0 -1)  ( 0  0  1)  ( 0  1  0)  ( 1 -1  0)  ( 1  0  0)

  ( 1  0 -1)  ( 1  0 -1)  ( 1 -1  0)  ( 1 -1  0)  ( 1 -1  0)  ( 1 -1  0)
  ( 0  1 -1)  ( 0  0 -1)  ( 1  0  0)  ( 1  0 -1)  ( 0 -1  1)  ( 0 -1  0)
  ( 0  0 -1)  ( 0  1 -1)  ( 1  0 -1)  ( 1  0  0)  ( 0 -1  0)  ( 0 -1  1)

  ( 0  1  0)  ( 0  1  0)  ( 0  1  0)  ( 0  1  0)  ( 0  1 -1)  ( 0  1 -1)
  ( 1  0  0)  ( 0  1 -1)  ( 0  0  1)  (-1  1  0)  ( 1  0 -1)  ( 0  1  0)
  ( 0  0  1)  (-1  1  0)  ( 1  0  0)  ( 0  1 -1)  ( 0  0 -1)  (-1  1  0)

  ( 0  1 -1)  ( 0  1 -1)  ( 0  0  1)  ( 0  0  1)  ( 0  0  1)  ( 0  0  1)
  ( 0  0 -1)  (-1  1  0)  ( 1  0  0)  ( 0  1  0)  ( 0 -1  1)  (-1  0  1)
  ( 1  0 -1)  ( 0  1  0)  ( 0  1  0)  ( 1  0  0)  (-1  0  1)  ( 0 -1  1)

  ( 0  0 -1)  ( 0  0 -1)  ( 0  0 -1)  ( 0  0 -1)  ( 0 -1  1)  ( 0 -1  1)
  ( 1  0 -1)  ( 0  1 -1)  ( 0 -1  0)  (-1  0  0)  ( 1 -1  0)  ( 0  0  1)
  ( 0  1 -1)  ( 1  0 -1)  (-1  0  0)  ( 0 -1  0)  ( 0 -1  0)  (-1  0  1)

  ( 0 -1  1)  ( 0 -1  1)  ( 0 -1  0)  ( 0 -1  0)  ( 0 -1  0)  ( 0 -1  0)
  ( 0 -1  0)  (-1  0  1)  ( 1 -1  0)  ( 0  0 -1)  ( 0 -1  1)  (-1  0  0)
  ( 1 -1  0)  ( 0  0  1)  ( 0 -1  1)  (-1  0  0)  ( 1 -1  0)  ( 0  0 -1)

  (-1  1  0)  (-1  1  0)  (-1  1  0)  (-1  1  0)  (-1  0  1)  (-1  0  1)
  ( 0  1  0)  ( 0  1 -1)  (-1  0  1)  (-1  0  0)  ( 0  0  1)  ( 0 -1  1)
  ( 0  1 -1)  ( 0  1  0)  (-1  0  0)  (-1  0  1)  ( 0 -1  1)  ( 0  0  1)

  (-1  0  1)  (-1  0  1)  (-1  0  0)  (-1  0  0)  (-1  0  0)  (-1  0  0)
  (-1  1  0)  (-1  0  0)  ( 0  0 -1)  ( 0 -1  0)  (-1  1  0)  (-1  0  1)
  (-1  0  0)  (-1  1  0)  ( 0 -1  0)  ( 0  0 -1)  (-1  0  1)  (-1  1  0)
Note: your k-points are not as symmetric as your crystal!

512 k-points: 8 x 8 x 8 Monkhorst-Pack grid
60 k-points in the irreducible part of the Brillouin zone
       k-points in crystal coordinates                weights
   0:     0.06250000    0.06250000   -0.06250000          6/512
   1:     0.06250000    0.06250000    0.06250000          2/512
   2:     0.18750000   -0.06250000   -0.06250000          6/512
   3:     0.18750000    0.06250000   -0.18750000         12/512
   4:     0.18750000    0.06250000   -0.06250000         12/512
   5:     0.18750000    0.06250000    0.06250000          6/512
   6:     0.18750000    0.18750000   -0.18750000          6/512
   7:     0.18750000    0.18750000   -0.06250000          6/512
   8:     0.18750000    0.18750000    0.06250000          6/512
   9:     0.18750000    0.18750000    0.18750000          2/512
          ...
  59:     0.43750000    0.43750000    0.43750000          2/512

Wave functions: Plane wave expansion
  Cutoff energy: 400.000 eV
  Number of coefficients (min, max): 199, 220
  Using FFTW library
  Eigensolver: None  MatrixOperator buffer_size: default value or 
                              see value of nblock in input file
Diagonalizer layout: Serial LAPACKOrthonormalizer layout: Serial LAPACK 

Davidson(niter=1, smin=None, normalize=True) 

Densities:
  Coarse grid: 10*10*10 grid
  Fine grid: 20*20*20 grid
  Total Charge: 0.000000 

Density mixing:
  Method: separate
  Backend: pulay
  Linear mixing parameter: 0.01
  Mixing with 11 old densities
  Damping of long wave oscillations: 100 

Hamiltonian:
  XC and Coulomb potentials evaluated on a 20*20*20 grid
  Using the PBE Exchange-Correlation functional
 

Memory estimate:
  Process memory now: 927.62 MiB
  Calculator: 6.61 MiB
    Density: 0.74 MiB
      Arrays: 0.27 MiB
      Localized functions: 0.13 MiB
      Mixer: 0.34 MiB
    Hamiltonian: 0.20 MiB
      Arrays: 0.20 MiB
      XC: 0.00 MiB
      Poisson: 0.00 MiB
      vbar: 0.00 MiB
    Wavefunctions: 5.67 MiB
      Arrays psit_nG: 3.63 MiB
      Eigensolver: 0.06 MiB
      Projections: 0.30 MiB
      Projectors: 1.47 MiB
      Overlap op: 0.03 MiB
      PW-descriptor: 0.19 MiB

Total number of cores used: 1

Number of atoms: 1
Number of atomic orbitals: 9
Number of bands in calculation: 9
Bands to converge: occupied states only
Number of valence electrons: 11

... initialized

Initializing position-dependent things.

Density initialized from atomic densities
Creating initial wave functions:
  9 bands from LCAO basis set

                
                
                
       Cu       
                
                
                
                

Positions:
   0 Cu     0.000000    0.000000    0.000000

Unit cell:
           periodic     x           y           z      points  spacing
  1. axis:    yes    0.000000    1.807500    1.807500    10     0.2087
  2. axis:    yes    1.807500    0.000000    1.807500    10     0.2087
  3. axis:    yes    1.807500    1.807500    0.000000    10     0.2087

  Lengths:   2.556191   2.556191   2.556191
  Angles:   60.000000  60.000000  60.000000

Effective grid spacing dv^(1/3) = 0.2277

                     log10-error:    total        iterations:
           time      wfs    density  energy       fermi  poisson  magmom
iter:   1  18:24:27  +1.93   +inf    -4.423127    4               +0.0000
iter:   2  18:24:28  +0.04   +inf    -4.473546    3               +0.0000
iter:   3  18:24:29  -0.93   +inf    -4.481473    2               +0.0000
iter:   4  18:24:31  -1.15  -1.17    -4.401407    4               -0.0000
iter:   5  18:24:32  +0.69  -1.19    -3.558006    29              -0.0000
iter:   6  18:24:34  -0.46  -1.67    -3.565617    30              +0.0000
iter:   7  18:24:36  -1.42  -1.87    -3.567123    4               -0.0000
iter:   8  18:24:37  -0.03  -1.86    -3.591489    27              +0.0000
iter:   9  18:24:39  -0.43  -1.72    -3.523008    28              +0.0000
iter:  10  18:24:41  -3.52  -2.94    -3.523060    3               +0.0000
iter:  11  18:24:42  -3.86  -2.93    -3.523076    3               +0.0000
iter:  12  18:24:44  -4.93  -2.90    -3.523064    3               -0.0000
iter:  13  18:24:45  -5.23  -3.36    -3.523054    3               -0.0000
iter:  14  18:24:47  -6.00  -3.79    -3.523055    2               -0.0000
iter:  15  18:24:48  -5.74  -3.79    -3.523054    3               -0.0000
iter:  16  18:24:50  -5.49  -3.96    -3.523053    3               -0.0000
iter:  17  18:24:51  -6.67  -4.38    -3.523053    2               -0.0000
iter:  18  18:24:53  -7.32  -5.07    -3.523053    2               -0.0000
iter:  19  18:24:54  -7.26  -4.93    -3.523053    2               -0.0000
iter:  20  18:24:56  -6.37  -4.99    -3.523053    2               -0.0000
iter:  21  18:24:57  -6.39  -4.85    -3.523054    2               +0.0000
iter:  22  18:24:59  -6.20  -4.52    -3.523053    2               +0.0000
iter:  23  18:25:01  -6.51  -4.81    -3.523053    2               +0.0000
iter:  24  18:25:02  -7.74  -5.62    -3.523053    2               +0.0000

Converged after 24 iterations.

Dipole moment: (-0.000000, -0.000000, -0.000000) |e|*Ang

Total magnetic moment: 0.000000
Local magnetic moments:
   0 Cu -0.000000

Energy contributions relative to reference atoms: (reference = -45021.451841)

Kinetic:        -13.246359
Potential:      +10.370364
External:        +0.000000
XC:              -0.902662
Entropy (-ST):   -0.000436
Local:           +0.255822
--------------------------
Free energy:     -3.523272
Extrapolated:    -3.523053

Spin contamination: 0.000000 electrons
Fermi level: 8.02150

Warning: Showing only first 2 kpts
                      Up                     Down
 Kpt  Band  Eigenvalues  Occupancy  Eigenvalues  Occupancy
  0     3      5.14121    0.01172      5.14121    0.01172
  0     4      5.75001    0.01172      5.75001    0.01172
  0     5      5.88976    0.01172      5.88976    0.01172
  0     6     28.08099    0.00000     28.08100    0.00000

  1     3      5.06380    0.00391      5.06380    0.00391
  1     4      5.84572    0.00391      5.84572    0.00391
  1     5      5.84572    0.00391      5.84572    0.00391
  1     6     29.99129    0.00000     29.99129    0.00000


Input parameters:
  convergence: {bands: all}
  eigensolver: {name: cg,
                niter: 5}
  fixdensity: True
  kpts: {npoints: 50,
         path: WLGXWK}
  nbands: -4
  symmetry: off

Initialize ...

Cu-setup:
  name: Copper
  id: f1c4d45d90492f1bbfdcb091e8418fdf
  Z: 29
  valence: 11
  core: 18
  charge: 0.0
  file: /usr/share/gpaw-setups/Cu.PBE.gz
  cutoffs: 1.06(comp), 2.06(filt), 2.43(core), lmax=2
  valence states:
                energy  radius
    4s(1.00)    -4.609   1.164
    4p(0.00)    -0.698   1.164
    3d(10.00)    -5.039   1.058
    *s          22.603   1.164
    *p          26.513   1.164
    *d          22.172   1.058

  Using partial waves for Cu as LCAO basis

Reference energy: -45021.451841

Spin-polarized calculation.
Magnetic moment:  0.000000

Occupation numbers:
  Fixed Fermi level
  Fermi-Dirac: width=0.0200 eV

Convergence criteria:
  Maximum total energy change: 0.0005 eV / electron
  Maximum integral of absolute density change: 0.0001 electrons
  Maximum integral of absolute eigenstate change: 4e-08 eV^2
  Maximum number of iterations: 1500

Symmetries present (total): 1

  ( 1  0  0)
  ( 0  1  0)
  ( 0  0  1)

50 k-points
50 k-points in the irreducible part of the Brillouin zone
       k-points in crystal coordinates                weights
   0:     0.50000000    0.25000000    0.75000000          1/50
   1:     0.50000000    0.27777778    0.72222222          1/50
   2:     0.50000000    0.30555556    0.69444444          1/50
   3:     0.50000000    0.33333333    0.66666667          1/50
   4:     0.50000000    0.36111111    0.63888889          1/50
   5:     0.50000000    0.38888889    0.61111111          1/50
   6:     0.50000000    0.41666667    0.58333333          1/50
   7:     0.50000000    0.44444444    0.55555556          1/50
   8:     0.50000000    0.47222222    0.52777778          1/50
   9:     0.50000000    0.50000000    0.50000000          1/50
          ...
  49:     0.37500000    0.37500000    0.75000000          1/50

Wave functions: Plane wave expansion
  Cutoff energy: 400.000 eV
  Number of coefficients (min, max): 181, 228
  Using FFTW library
  Eigensolver: None  MatrixOperator buffer_size: default value or 
                              see value of nblock in input file
Diagonalizer layout: Serial LAPACKOrthonormalizer layout: Serial LAPACK 

CG(niter=5, rtol=3.0e-01) 

No density mixing

Memory estimate:
  Process memory now: 994.07 MiB
  Calculator: 5.78 MiB
    Density: 0.74 MiB
      Arrays: 0.27 MiB
      Localized functions: 0.13 MiB
      Mixer: 0.34 MiB
    Hamiltonian: 0.20 MiB
      Arrays: 0.20 MiB
      XC: 0.00 MiB
      Poisson: 0.00 MiB
      vbar: 0.00 MiB
    Wavefunctions: 4.84 MiB
      Arrays psit_nG: 3.13 MiB
      Eigensolver: 0.05 MiB
      Projections: 0.25 MiB
      Projectors: 1.22 MiB
      Overlap op: 0.03 MiB
      PW-descriptor: 0.16 MiB

Total number of cores used: 1

Number of atoms: 1
Number of atomic orbitals: 9
Number of bands in calculation: 9
Bands to converge: all
Number of valence electrons: 11

... initialized

Initializing position-dependent things.

Creating initial wave functions:
  9 bands from LCAO basis set

                
                
                
       Cu       
                
                
                
                

Positions:
   0 Cu     0.000000    0.000000    0.000000

Unit cell:
           periodic     x           y           z      points  spacing
  1. axis:    yes    0.000000    1.807500    1.807500    10     0.2087
  2. axis:    yes    1.807500    0.000000    1.807500    10     0.2087
  3. axis:    yes    1.807500    1.807500    0.000000    10     0.2087

  Lengths:   2.556191   2.556191   2.556191
  Angles:   60.000000  60.000000  60.000000

Effective grid spacing dv^(1/3) = 0.2277

                     log10-error:    total        iterations:
           time      wfs    density  energy       fermi  poisson  magmom
iter:   1  18:25:08  +1.70           -4.693316    29              +0.0000
iter:   2  18:25:12  +0.70           -4.718473    30              +0.0000
iter:   3  18:25:15  -0.08           -4.720006    31              +0.0000
iter:   4  18:25:18  -1.06           -4.720293    28              +0.0000
iter:   5  18:25:22  -2.19           -4.720321    30              +0.0000
iter:   6  18:25:26  -0.49           -4.720324    31              +0.0000
iter:   7  18:25:29  -0.27           -4.720325    30              +0.0000
iter:   8  18:25:32  -0.38           -4.720325    29              +0.0000
iter:   9  18:25:35  -1.07           -4.720325    31              +0.0000
iter:  10  18:25:36  -1.44           -4.720325    31              +0.0000
iter:  11  18:25:37  -2.31           -4.720325    31              +0.0000
iter:  12  18:25:38  -3.47           -4.720325    31              +0.0000
iter:  13  18:25:39  -4.18           -4.720325    31              +0.0000
iter:  14  18:25:40  -5.39           -4.720325    31              +0.0000
iter:  15  18:25:40  -6.38           -4.720325    31              +0.0000
iter:  16  18:25:41  -6.11           -4.720325    31              +0.0000
iter:  17  18:25:42  -7.07           -4.720325    31              +0.0000
iter:  18  18:25:43  -6.37           -4.720325    31              +0.0000
iter:  19  18:25:43  -7.28           -4.720325    31              +0.0000
iter:  20  18:25:44  -6.57           -4.720325    31              +0.0000
iter:  21  18:25:44  -7.46           -4.720325    31              +0.0000

Converged after 21 iterations.

Dipole moment: (-0.000000, -0.000000, -0.000000) |e|*Ang

Total magnetic moment: 0.000000
Local magnetic moments:
   0 Cu -0.000000

Energy contributions relative to reference atoms: (reference = -45021.451841)

Kinetic:        -14.443388
Potential:      +10.370366
External:        +0.000000
XC:              -0.902658
Entropy (-ST):   -0.000929
Local:           +0.255821
--------------------------
Free energy:     -4.720789
Extrapolated:    -4.720325

Spin contamination: 0.000000 electrons
Fixed Fermi level: 8.02150

Warning: Showing only first 2 kpts
                      Up                     Down
 Kpt  Band  Eigenvalues  Occupancy  Eigenvalues  Occupancy
  0     3      5.81060    0.02000      5.81060    0.02000
  0     4      6.56634    0.02000      6.56634    0.02000
  0     5     14.24835    0.00000     14.24835    0.00000
  0     6     14.24984    0.00000     14.24984    0.00000

  1     3      5.80955    0.02000      5.80955    0.02000
  1     4      6.53318    0.02000      6.53318    0.02000
  1     5     13.66235    0.00000     13.66235    0.00000
  1     6     13.92620    0.00000     13.92620    0.00000


Timing:                              incl.     excl.
-----------------------------------------------------------
Hamiltonian:                         0.502     0.001   0.0% |
 Atomic:                             0.471     0.002   0.0% |
  XC Correction:                     0.469     0.469   0.6% |
 Calculate atomic Hamiltonians:      0.001     0.001   0.0% |
 Communicate:                        0.000     0.000   0.0% |
 Initialize Hamiltonian:             0.000     0.000   0.0% |
 Poisson:                            0.000     0.000   0.0% |
 XC 3D grid:                         0.029     0.029   0.0% |
LCAO initialization:                 4.776     0.114   0.1% |
 LCAO eigensolver:                   3.141     0.022   0.0% |
  Calculate projections:             0.007     0.007   0.0% |
  DenseAtomicCorrection:             0.043     0.043   0.1% |
  Distribute overlap matrix:         0.009     0.009   0.0% |
  Orbital Layouts:                   0.097     0.097   0.1% |
  Potential matrix:                  0.601     0.601   0.7% |
  Sum over cells:                    2.362     2.362   2.8% ||
 LCAO to grid:                       0.640     0.640   0.8% |
 Set positions (LCAO WFS):           0.879     0.001   0.0% |
  Basic WFS set positions:           0.002     0.002   0.0% |
  Basis functions set positions:     0.000     0.000   0.0% |
  TCI: Calculate S, T, P:            0.876     0.876   1.0% |
PWDescriptor:                        0.018     0.018   0.0% |
Redistribute:                        0.000     0.000   0.0% |
SCF-cycle:                          75.982    10.049  11.9% |----|
 CG:                                26.800    23.475  27.9% |----------|
  CG: orthonormalize:                3.324     1.943   2.3% ||
   CG: overlap:                      0.826     0.826   1.0% |
   CG: overlap2:                     0.555     0.555   0.7% |
 Davidson:                          19.999    11.758  14.0% |-----|
  calc. matrices:                    4.728     4.728   5.6% |-|
  diagonalize:                       2.702     2.702   3.2% ||
  rotate_psi:                        0.812     0.812   1.0% |
 Density:                            2.367     0.001   0.0% |
  Atomic density matrices:           0.067     0.067   0.1% |
  Mix:                               0.086     0.086   0.1% |
  Multipole moments:                 0.002     0.002   0.0% |
  Pseudo density:                    2.210     2.062   2.5% ||
   Symmetrize density:               0.148     0.148   0.2% |
 Hamiltonian:                        5.835     0.013   0.0% |
  Atomic:                            5.068     0.023   0.0% |
   XC Correction:                    5.045     5.045   6.0% |-|
  Calculate atomic Hamiltonians:     0.036     0.036   0.0% |
  Communicate:                       0.000     0.000   0.0% |
  Poisson:                           0.004     0.004   0.0% |
  XC 3D grid:                        0.714     0.714   0.8% |
 Orthonormalize:                     0.215     0.017   0.0% |
  Band Layouts:                      0.016     0.004   0.0% |
   Inverse Cholesky:                 0.012     0.012   0.0% |
  calc_s_matrix:                     0.033     0.033   0.0% |
  projections:                       0.120     0.120   0.1% |
  rotate_psi:                        0.029     0.029   0.0% |
 Residuals:                          1.554     1.554   1.8% ||
 Subspace diag:                      9.163     0.588   0.7% |
  Band Layouts:                      1.366     0.169   0.2% |
   Diagonalize:                      1.075     1.075   1.3% ||
   Distribute results:               0.122     0.122   0.1% |
  calc_h_matrix:                     6.089     6.089   7.2% |--|
  rotate_psi:                        1.120     1.120   1.3% ||
Set symmetry:                        0.157     0.157   0.2% |
Other:                               2.738     2.738   3.3% ||
-----------------------------------------------------------
Total:                                        84.174 100.0%

Date: Thu Feb 11 18:25:46 2021
element =  Cu
struct =  fcc
kpts =  (8,8,8)
element =  Cu
configuration =  [Ar] 3d10 4s1 4p0
valence =  ['3d', '4s', '4p']
occupations =  {'3d': 10, '4s': 1, '4p': 0}
nls =  4s
rNum =  600
lmax =  d
*******************************************
Starting confinement parameter optimization
Adjustable parameters and initial values:
  Cu_3d.r0 : 4.988877
  Cu_4p.r0 : 4.988877
  Cu_4s.r0 : 4.988877
  Cu_n.r0 : 7.483315
*******************************************

OPT_VAL: 4.988876972209491   4.988876972209491   4.988876972209491   7.4833154583142365
VCONF:
  Cu_3d : PowerConfinement(r0=4.988877, s=2.000000)
  Cu_4p : PowerConfinement(r0=4.988877, s=2.000000)
  Cu_4s : PowerConfinement(r0=4.988877, s=2.000000)
  Cu_n : PowerConfinement(r0=7.483315, s=2.000000)
RESIDUAL: 0.0

OPT_VAL: 5.188876972209491   4.988876972209491   4.988876972209491   7.4833154583142365
VCONF:
  Cu_3d : PowerConfinement(r0=5.188877, s=2.000000)
  Cu_4p : PowerConfinement(r0=4.988877, s=2.000000)
  Cu_4s : PowerConfinement(r0=4.988877, s=2.000000)
  Cu_n : PowerConfinement(r0=7.483315, s=2.000000)
RESIDUAL: 0.0

OPT_VAL: 4.988876972209491   5.188876972209491   4.988876972209491   7.4833154583142365
VCONF:
  Cu_3d : PowerConfinement(r0=4.988877, s=2.000000)
  Cu_4p : PowerConfinement(r0=5.188877, s=2.000000)
  Cu_4s : PowerConfinement(r0=4.988877, s=2.000000)
  Cu_n : PowerConfinement(r0=7.483315, s=2.000000)
RESIDUAL: 0.0

OPT_VAL: 4.988876972209491   4.988876972209491   5.188876972209491   7.4833154583142365
VCONF:
  Cu_3d : PowerConfinement(r0=4.988877, s=2.000000)
  Cu_4p : PowerConfinement(r0=4.988877, s=2.000000)
  Cu_4s : PowerConfinement(r0=5.188877, s=2.000000)
  Cu_n : PowerConfinement(r0=7.483315, s=2.000000)
RESIDUAL: 0.0

OPT_VAL: 4.988876972209491   4.988876972209491   4.988876972209491   7.683315458314237
VCONF:
  Cu_3d : PowerConfinement(r0=4.988877, s=2.000000)
  Cu_4p : PowerConfinement(r0=4.988877, s=2.000000)
  Cu_4s : PowerConfinement(r0=4.988877, s=2.000000)
  Cu_n : PowerConfinement(r0=7.683315, s=2.000000)
RESIDUAL: 0.0

OPT_VAL: 5.013876972209491   4.988876972209491   4.988876972209491   7.4833154583142365
VCONF:
  Cu_3d : PowerConfinement(r0=5.013877, s=2.000000)
  Cu_4p : PowerConfinement(r0=4.988877, s=2.000000)
  Cu_4s : PowerConfinement(r0=4.988877, s=2.000000)
  Cu_n : PowerConfinement(r0=7.483315, s=2.000000)
RESIDUAL: 0.0

OPT_VAL: 4.988876972209491   5.013876972209491   4.988876972209491   7.4833154583142365
VCONF:
  Cu_3d : PowerConfinement(r0=4.988877, s=2.000000)
  Cu_4p : PowerConfinement(r0=5.013877, s=2.000000)
  Cu_4s : PowerConfinement(r0=4.988877, s=2.000000)
  Cu_n : PowerConfinement(r0=7.483315, s=2.000000)
RESIDUAL: 0.0

OPT_VAL: 4.988876972209491   4.988876972209491   5.013876972209491   7.4833154583142365
VCONF:
  Cu_3d : PowerConfinement(r0=4.988877, s=2.000000)
  Cu_4p : PowerConfinement(r0=4.988877, s=2.000000)
  Cu_4s : PowerConfinement(r0=5.013877, s=2.000000)
  Cu_n : PowerConfinement(r0=7.483315, s=2.000000)
RESIDUAL: 0.0

OPT_VAL: 4.988876972209491   4.988876972209491   4.988876972209491   7.508315458314237
VCONF:
  Cu_3d : PowerConfinement(r0=4.988877, s=2.000000)
  Cu_4p : PowerConfinement(r0=4.988877, s=2.000000)
  Cu_4s : PowerConfinement(r0=4.988877, s=2.000000)
  Cu_n : PowerConfinement(r0=7.508315, s=2.000000)
RESIDUAL: 0.0

OPT_VAL: 4.993876972209491   4.988876972209491   4.988876972209491   7.4833154583142365
VCONF:
  Cu_3d : PowerConfinement(r0=4.993877, s=2.000000)
  Cu_4p : PowerConfinement(r0=4.988877, s=2.000000)
  Cu_4s : PowerConfinement(r0=4.988877, s=2.000000)
  Cu_n : PowerConfinement(r0=7.483315, s=2.000000)
RESIDUAL: 0.0

OPT_VAL: 4.988876972209491   4.993876972209491   4.988876972209491   7.4833154583142365
VCONF:
  Cu_3d : PowerConfinement(r0=4.988877, s=2.000000)
  Cu_4p : PowerConfinement(r0=4.993877, s=2.000000)
  Cu_4s : PowerConfinement(r0=4.988877, s=2.000000)
  Cu_n : PowerConfinement(r0=7.483315, s=2.000000)
RESIDUAL: 0.0

OPT_VAL: 4.988876972209491   4.988876972209491   4.993876972209491   7.4833154583142365
VCONF:
  Cu_3d : PowerConfinement(r0=4.988877, s=2.000000)
  Cu_4p : PowerConfinement(r0=4.988877, s=2.000000)
  Cu_4s : PowerConfinement(r0=4.993877, s=2.000000)
  Cu_n : PowerConfinement(r0=7.483315, s=2.000000)
RESIDUAL: 0.0

OPT_VAL: 4.988876972209491   4.988876972209491   4.988876972209491   7.488315458314236
VCONF:
  Cu_3d : PowerConfinement(r0=4.988877, s=2.000000)
  Cu_4p : PowerConfinement(r0=4.988877, s=2.000000)
  Cu_4s : PowerConfinement(r0=4.988877, s=2.000000)
  Cu_n : PowerConfinement(r0=7.488315, s=2.000000)
RESIDUAL: 0.0

*******************************************
Optimization finished after 13 iterations
Adjustable parameters and final values:
  Cu_3d.r0 : 4.988877
  Cu_4p.r0 : 4.988877
  Cu_4s.r0 : 4.988877
  Cu_n.r0 : 7.483315
*******************************************

VCONF:
  Cu_3d : PowerConfinement(r0=4.988877, s=2.000000)
  Cu_4p : PowerConfinement(r0=4.988877, s=2.000000)
  Cu_4s : PowerConfinement(r0=4.988877, s=2.000000)
  Cu_n : PowerConfinement(r0=7.483315, s=2.000000)
