
     Program PWSCF v.6.0 (svn rev. 13079) starts on 26Feb2021 at 10:51:26 

     This program is part of the open-source Quantum ESPRESSO suite
     for quantum simulation of materials; please cite
         "P. Giannozzi et al., J. Phys.:Condens. Matter 21 395502 (2009);
          URL http://www.quantum-espresso.org", 
     in publications or presentations arising from this work. More details at
     http://www.quantum-espresso.org/quote

     Parallel version (MPI), running on     1 processors
     Reading input from espresso.pwi
Warning: card &IONS ignored
Warning: card / ignored
Warning: card &CELL ignored
Warning: card / ignored

     Current dimensions of program PWSCF are:
     Max number of different atomic species (ntypx) = 10
     Max number of k-points (npk) =  40000
     Max angular momentum in pseudopotentials (lmaxx) =  3
     Message from routine input:
     WARNING: "startingwfc" set to atomic+random may spoil restart

     Atomic positions and unit cell read from directory:
     ./pwscf.save/


     IMPORTANT: XC functional enforced from input :
     Exchange-correlation      = PBE ( 1  4  3  4 0 0)
     Any further DFT definition will be discarded
     Please, verify this is what you really want


     Subspace diagonalization in iterative solution of the eigenvalue problem:
     a serial algorithm will be used


     G-vector sticks info
     --------------------
     sticks:   dense  smooth     PW     G-vecs:    dense   smooth      PW
     Sum         547     433    139                15925    11415    1971



     bravais-lattice index     =            0
     lattice parameter (alat)  =       6.2766  a.u.
     unit-cell volume          =     332.8078 (a.u.)^3
     number of atoms/cell      =            2
     number of atomic types    =            1
     number of electrons       =        22.00
     number of Kohn-Sham states=           15
     kinetic-energy cutoff     =      40.0000  Ry
     charge density cutoff     =     200.0000  Ry
     Exchange-correlation      = PBE ( 1  4  3  4 0 0)

     celldm(1)=   6.276629  celldm(2)=   0.000000  celldm(3)=   0.000000
     celldm(4)=   0.000000  celldm(5)=   0.000000  celldm(6)=   0.000000

     crystal axes: (cart. coord. in units of alat)
               a(1) = (   1.000000   0.000000   0.000000 )  
               a(2) = (  -0.500000   0.866025   0.000000 )  
               a(3) = (   0.000000   0.000000   1.554116 )  

     reciprocal axes: (cart. coord. in units 2 pi/alat)
               b(1) = (  1.000000  0.577350 -0.000000 )  
               b(2) = (  0.000000  1.154701  0.000000 )  
               b(3) = (  0.000000 -0.000000  0.643452 )  


     PseudoPot. # 1 for Sc read from file:
     /home/inukai/tango/tests/1element/qe_fit_v3_Sc/../pseudo/sc_pbe_v1.uspp.F.UPF
     MD5 check sum: db30a2753ba66ef00f23801d899b7e7f
     Pseudo is Ultrasoft + core correction, Zval = 11.0
     Generated by new atomic code, or converted to UPF format
     Using radial grid of  849 points,  6 beta functions with: 
                l(1) =   0
                l(2) =   0
                l(3) =   1
                l(4) =   1
                l(5) =   2
                l(6) =   2
     Q(r) pseudized with  6 coefficients,  rinner =    1.200   1.200   1.200
                                                       1.200   1.200

     atomic species   valence    mass     pseudopotential
        Sc            11.00    44.95591     Sc( 1.00)

     12 Sym. Ops., with inversion, found
          (note: 12 additional sym.ops. were found but ignored
           their fractional translations are incommensurate with FFT grid)

                                    s                        frac. trans.

      isym =  1     identity                                     

 cryst.   s( 1) = (     1          0          0      )
                  (     0          1          0      )
                  (     0          0          1      )

 cart.    s( 1) = (  1.0000000  0.0000000  0.0000000 )
                  (  0.0000000  1.0000000  0.0000000 )
                  (  0.0000000  0.0000000  1.0000000 )


      isym =  2     180 deg rotation - cart. axis [1,0,0]        

 cryst.   s( 2) = (     1          0          0      )
                  (    -1         -1          0      )
                  (     0          0         -1      )

 cart.    s( 2) = (  1.0000000  0.0000000  0.0000000 )
                  (  0.0000000 -1.0000000  0.0000000 )
                  (  0.0000000  0.0000000 -1.0000000 )


      isym =  3     120 deg rotation - cryst. axis [0,0,1]       

 cryst.   s( 3) = (     0          1          0      )
                  (    -1         -1          0      )
                  (     0          0          1      )

 cart.    s( 3) = ( -0.5000000 -0.8660254  0.0000000 )
                  (  0.8660254 -0.5000000  0.0000000 )
                  (  0.0000000  0.0000000  1.0000000 )


      isym =  4     120 deg rotation - cryst. axis [0,0,-1]      

 cryst.   s( 4) = (    -1         -1          0      )
                  (     1          0          0      )
                  (     0          0          1      )

 cart.    s( 4) = ( -0.5000000  0.8660254  0.0000000 )
                  ( -0.8660254 -0.5000000  0.0000000 )
                  (  0.0000000  0.0000000  1.0000000 )


      isym =  5     180 deg rotation - cryst. axis [0,1,0]       

 cryst.   s( 5) = (    -1         -1          0      )
                  (     0          1          0      )
                  (     0          0         -1      )

 cart.    s( 5) = ( -0.5000000 -0.8660254  0.0000000 )
                  ( -0.8660254  0.5000000  0.0000000 )
                  (  0.0000000  0.0000000 -1.0000000 )


      isym =  6     180 deg rotation - cryst. axis [1,1,0]       

 cryst.   s( 6) = (     0          1          0      )
                  (     1          0          0      )
                  (     0          0         -1      )

 cart.    s( 6) = ( -0.5000000  0.8660254  0.0000000 )
                  (  0.8660254  0.5000000  0.0000000 )
                  (  0.0000000  0.0000000 -1.0000000 )


      isym =  7     inversion                                    

 cryst.   s( 7) = (    -1          0          0      )
                  (     0         -1          0      )
                  (     0          0         -1      )

 cart.    s( 7) = ( -1.0000000  0.0000000  0.0000000 )
                  (  0.0000000 -1.0000000  0.0000000 )
                  (  0.0000000  0.0000000 -1.0000000 )


      isym =  8     inv. 180 deg rotation - cart. axis [1,0,0]   

 cryst.   s( 8) = (    -1          0          0      )
                  (     1          1          0      )
                  (     0          0          1      )

 cart.    s( 8) = ( -1.0000000  0.0000000  0.0000000 )
                  (  0.0000000  1.0000000  0.0000000 )
                  (  0.0000000  0.0000000  1.0000000 )


      isym =  9     inv. 120 deg rotation - cryst. axis [0,0,1]  

 cryst.   s( 9) = (     0         -1          0      )
                  (     1          1          0      )
                  (     0          0         -1      )

 cart.    s( 9) = (  0.5000000  0.8660254  0.0000000 )
                  ( -0.8660254  0.5000000  0.0000000 )
                  (  0.0000000  0.0000000 -1.0000000 )


      isym = 10     inv. 120 deg rotation - cryst. axis [0,0,-1] 

 cryst.   s(10) = (     1          1          0      )
                  (    -1          0          0      )
                  (     0          0         -1      )

 cart.    s(10) = (  0.5000000 -0.8660254  0.0000000 )
                  (  0.8660254  0.5000000  0.0000000 )
                  (  0.0000000  0.0000000 -1.0000000 )


      isym = 11     inv. 180 deg rotation - cryst. axis [0,1,0]  

 cryst.   s(11) = (     1          1          0      )
                  (     0         -1          0      )
                  (     0          0          1      )

 cart.    s(11) = (  0.5000000  0.8660254  0.0000000 )
                  (  0.8660254 -0.5000000  0.0000000 )
                  (  0.0000000  0.0000000  1.0000000 )


      isym = 12     inv. 180 deg rotation - cryst. axis [1,1,0]  

 cryst.   s(12) = (     0         -1          0      )
                  (    -1          0          0      )
                  (     0          0          1      )

 cart.    s(12) = (  0.5000000 -0.8660254  0.0000000 )
                  ( -0.8660254 -0.5000000  0.0000000 )
                  (  0.0000000  0.0000000  1.0000000 )


   Cartesian axes

     site n.     atom                  positions (alat units)
         1           Sc  tau(   1) = (   0.0000000   0.5773503   1.1655872  )
         2           Sc  tau(   2) = (   0.5000000   0.2886751   0.3885291  )

   Crystallographic axes

     site n.     atom                  positions (cryst. coord.)
         1           Sc  tau(   1) = (  0.3333333  0.6666667  0.7500000  )
         2           Sc  tau(   2) = (  0.6666667  0.3333333  0.2500000  )

     number of k points=    50  gaussian smearing, width (Ry)=  0.0010
                       cart. coord. in units 2pi/alat
        k(    1) = (   0.0000000   0.0000000   0.0000000), wk =   0.0400000
        k(    2) = (   0.0833333   0.0481125   0.0000000), wk =   0.0400000
        k(    3) = (   0.1666667   0.0962250   0.0000000), wk =   0.0400000
        k(    4) = (   0.2500000   0.1443376   0.0000000), wk =   0.0400000
        k(    5) = (   0.3333333   0.1924501   0.0000000), wk =   0.0400000
        k(    6) = (   0.4166667   0.2405626   0.0000000), wk =   0.0400000
        k(    7) = (   0.5000000   0.2886751   0.0000000), wk =   0.0400000
        k(    8) = (   0.4444444   0.3849002   0.0000000), wk =   0.0400000
        k(    9) = (   0.3888889   0.4811252   0.0000000), wk =   0.0400000
        k(   10) = (   0.3333333   0.5773503   0.0000000), wk =   0.0400000
        k(   11) = (   0.2916667   0.5051815   0.0000000), wk =   0.0400000
        k(   12) = (   0.2500000   0.4330127   0.0000000), wk =   0.0400000
        k(   13) = (   0.2083333   0.3608439   0.0000000), wk =   0.0400000
        k(   14) = (   0.1666667   0.2886751   0.0000000), wk =   0.0400000
        k(   15) = (   0.1250000   0.2165064   0.0000000), wk =   0.0400000
        k(   16) = (   0.0833333   0.1443376   0.0000000), wk =   0.0400000
        k(   17) = (   0.0416667   0.0721688   0.0000000), wk =   0.0400000
        k(   18) = (   0.0000000   0.0000000   0.0000000), wk =   0.0400000
        k(   19) = (   0.0000000   0.0000000   0.1072421), wk =   0.0400000
        k(   20) = (   0.0000000   0.0000000   0.2144842), wk =   0.0400000
        k(   21) = (   0.0000000   0.0000000   0.3217262), wk =   0.0400000
        k(   22) = (   0.0714286   0.0412393   0.3217262), wk =   0.0400000
        k(   23) = (   0.1428571   0.0824786   0.3217262), wk =   0.0400000
        k(   24) = (   0.2142857   0.1237179   0.3217262), wk =   0.0400000
        k(   25) = (   0.2857143   0.1649572   0.3217262), wk =   0.0400000
        k(   26) = (   0.3571429   0.2061965   0.3217262), wk =   0.0400000
        k(   27) = (   0.4285714   0.2474358   0.3217262), wk =   0.0400000
        k(   28) = (   0.5000000   0.2886751   0.3217262), wk =   0.0400000
        k(   29) = (   0.4583333   0.3608439   0.3217262), wk =   0.0400000
        k(   30) = (   0.4166667   0.4330127   0.3217262), wk =   0.0400000
        k(   31) = (   0.3750000   0.5051815   0.3217262), wk =   0.0400000
        k(   32) = (   0.3333333   0.5773503   0.3217262), wk =   0.0400000
        k(   33) = (   0.2962963   0.5132002   0.3217262), wk =   0.0400000
        k(   34) = (   0.2592593   0.4490502   0.3217262), wk =   0.0400000
        k(   35) = (   0.2222222   0.3849002   0.3217262), wk =   0.0400000
        k(   36) = (   0.1851852   0.3207501   0.3217262), wk =   0.0400000
        k(   37) = (   0.1481481   0.2566001   0.3217262), wk =   0.0400000
        k(   38) = (   0.1111111   0.1924501   0.3217262), wk =   0.0400000
        k(   39) = (   0.0740741   0.1283001   0.3217262), wk =   0.0400000
        k(   40) = (   0.0370370   0.0641500   0.3217262), wk =   0.0400000
        k(   41) = (   0.0000000   0.0000000   0.3217262), wk =   0.0400000
        k(   42) = (   0.5000000   0.2886751   0.3217262), wk =   0.0400000
        k(   43) = (   0.5000000   0.2886751   0.2412947), wk =   0.0400000
        k(   44) = (   0.5000000   0.2886751   0.1608631), wk =   0.0400000
        k(   45) = (   0.5000000   0.2886751   0.0804316), wk =   0.0400000
        k(   46) = (   0.5000000   0.2886751   0.0000000), wk =   0.0400000
        k(   47) = (   0.3333333   0.5773503   0.0000000), wk =   0.0400000
        k(   48) = (   0.3333333   0.5773503   0.1072421), wk =   0.0400000
        k(   49) = (   0.3333333   0.5773503   0.2144842), wk =   0.0400000
        k(   50) = (   0.3333333   0.5773503   0.3217262), wk =   0.0400000

                       cryst. coord.
        k(    1) = (   0.0000000   0.0000000   0.0000000), wk =   0.0400000
        k(    2) = (   0.0833333  -0.0000000   0.0000000), wk =   0.0400000
        k(    3) = (   0.1666667   0.0000000   0.0000000), wk =   0.0400000
        k(    4) = (   0.2500000  -0.0000000   0.0000000), wk =   0.0400000
        k(    5) = (   0.3333333   0.0000000   0.0000000), wk =   0.0400000
        k(    6) = (   0.4166667  -0.0000000   0.0000000), wk =   0.0400000
        k(    7) = (   0.5000000  -0.0000000   0.0000000), wk =   0.0400000
        k(    8) = (   0.4444444   0.1111111   0.0000000), wk =   0.0400000
        k(    9) = (   0.3888889   0.2222222   0.0000000), wk =   0.0400000
        k(   10) = (   0.3333333   0.3333333   0.0000000), wk =   0.0400000
        k(   11) = (   0.2916667   0.2916667   0.0000000), wk =   0.0400000
        k(   12) = (   0.2500000   0.2500000   0.0000000), wk =   0.0400000
        k(   13) = (   0.2083333   0.2083333   0.0000000), wk =   0.0400000
        k(   14) = (   0.1666667   0.1666667   0.0000000), wk =   0.0400000
        k(   15) = (   0.1250000   0.1250000   0.0000000), wk =   0.0400000
        k(   16) = (   0.0833333   0.0833333   0.0000000), wk =   0.0400000
        k(   17) = (   0.0416667   0.0416667   0.0000000), wk =   0.0400000
        k(   18) = (   0.0000000   0.0000000   0.0000000), wk =   0.0400000
        k(   19) = (   0.0000000   0.0000000   0.1666667), wk =   0.0400000
        k(   20) = (   0.0000000   0.0000000   0.3333333), wk =   0.0400000
        k(   21) = (   0.0000000   0.0000000   0.5000000), wk =   0.0400000
        k(   22) = (   0.0714286  -0.0000000   0.5000000), wk =   0.0400000
        k(   23) = (   0.1428571  -0.0000000   0.5000000), wk =   0.0400000
        k(   24) = (   0.2142857  -0.0000000   0.5000000), wk =   0.0400000
        k(   25) = (   0.2857143  -0.0000000   0.5000000), wk =   0.0400000
        k(   26) = (   0.3571429  -0.0000000   0.5000000), wk =   0.0400000
        k(   27) = (   0.4285714  -0.0000000   0.5000000), wk =   0.0400000
        k(   28) = (   0.5000000  -0.0000000   0.5000000), wk =   0.0400000
        k(   29) = (   0.4583333   0.0833333   0.5000000), wk =   0.0400000
        k(   30) = (   0.4166667   0.1666667   0.5000000), wk =   0.0400000
        k(   31) = (   0.3750000   0.2500000   0.5000000), wk =   0.0400000
        k(   32) = (   0.3333333   0.3333333   0.5000000), wk =   0.0400000
        k(   33) = (   0.2962963   0.2962963   0.5000000), wk =   0.0400000
        k(   34) = (   0.2592593   0.2592593   0.5000000), wk =   0.0400000
        k(   35) = (   0.2222222   0.2222222   0.5000000), wk =   0.0400000
        k(   36) = (   0.1851852   0.1851852   0.5000000), wk =   0.0400000
        k(   37) = (   0.1481481   0.1481481   0.5000000), wk =   0.0400000
        k(   38) = (   0.1111111   0.1111111   0.5000000), wk =   0.0400000
        k(   39) = (   0.0740741   0.0740741   0.5000000), wk =   0.0400000
        k(   40) = (   0.0370370   0.0370370   0.5000000), wk =   0.0400000
        k(   41) = (   0.0000000   0.0000000   0.5000000), wk =   0.0400000
        k(   42) = (   0.5000000  -0.0000000   0.5000000), wk =   0.0400000
        k(   43) = (   0.5000000  -0.0000000   0.3750000), wk =   0.0400000
        k(   44) = (   0.5000000  -0.0000000   0.2500000), wk =   0.0400000
        k(   45) = (   0.5000000  -0.0000000   0.1250000), wk =   0.0400000
        k(   46) = (   0.5000000  -0.0000000   0.0000000), wk =   0.0400000
        k(   47) = (   0.3333333   0.3333333   0.0000000), wk =   0.0400000
        k(   48) = (   0.3333333   0.3333333   0.1666667), wk =   0.0400000
        k(   49) = (   0.3333333   0.3333333   0.3333333), wk =   0.0400000
        k(   50) = (   0.3333333   0.3333333   0.5000000), wk =   0.0400000

     Dense  grid:    15925 G-vectors     FFT dimensions: (  30,  30,  45)

     Smooth grid:    11415 G-vectors     FFT dimensions: (  25,  25,  40)

     Estimated max dynamical RAM per process >      24.79Mb

     Check: negative/imaginary core charge=   -0.000005    0.000000

     The potential is recalculated from file :
     ./pwscf.save/charge-density.dat

     Starting wfc are   26 randomized atomic wfcs

     Band Structure Calculation
     Davidson diagonalization with overlap

     Computing kpt #:     1
     total cpu time spent up to now is        1.0 secs

     Computing kpt #:     2
     total cpu time spent up to now is        1.5 secs

     Computing kpt #:     3
     total cpu time spent up to now is        2.0 secs

     Computing kpt #:     4
     total cpu time spent up to now is        2.4 secs

     Computing kpt #:     5
     total cpu time spent up to now is        2.7 secs

     Computing kpt #:     6
     total cpu time spent up to now is        3.0 secs

     Computing kpt #:     7
     total cpu time spent up to now is        3.4 secs

     Computing kpt #:     8
     total cpu time spent up to now is        3.7 secs

     Computing kpt #:     9
     total cpu time spent up to now is        4.0 secs

     Computing kpt #:    10
     total cpu time spent up to now is        4.4 secs

     Computing kpt #:    11
     total cpu time spent up to now is        4.7 secs

     Computing kpt #:    12
     total cpu time spent up to now is        5.1 secs

     Computing kpt #:    13
     total cpu time spent up to now is        5.4 secs

     Computing kpt #:    14
     total cpu time spent up to now is        5.8 secs

     Computing kpt #:    15
     total cpu time spent up to now is        6.2 secs

     Computing kpt #:    16
     total cpu time spent up to now is        6.7 secs

     Computing kpt #:    17
     total cpu time spent up to now is        7.1 secs

     Computing kpt #:    18
     total cpu time spent up to now is        7.5 secs

     Computing kpt #:    19
     total cpu time spent up to now is        7.9 secs

     Computing kpt #:    20
     total cpu time spent up to now is        8.3 secs

     Computing kpt #:    21
     total cpu time spent up to now is        8.6 secs

     Computing kpt #:    22
     total cpu time spent up to now is        9.0 secs

     Computing kpt #:    23
     total cpu time spent up to now is        9.3 secs

     Computing kpt #:    24
     total cpu time spent up to now is        9.7 secs

     Computing kpt #:    25
     total cpu time spent up to now is       10.0 secs

     Computing kpt #:    26
     total cpu time spent up to now is       10.3 secs

     Computing kpt #:    27
     total cpu time spent up to now is       10.7 secs

     Computing kpt #:    28
     total cpu time spent up to now is       11.0 secs

     Computing kpt #:    29
     total cpu time spent up to now is       11.4 secs

     Computing kpt #:    30
     total cpu time spent up to now is       11.7 secs

     Computing kpt #:    31
     total cpu time spent up to now is       12.1 secs

     Computing kpt #:    32
     total cpu time spent up to now is       12.4 secs

     Computing kpt #:    33
     total cpu time spent up to now is       12.7 secs

     Computing kpt #:    34
     total cpu time spent up to now is       13.1 secs

     Computing kpt #:    35
     total cpu time spent up to now is       13.4 secs

     Computing kpt #:    36
     total cpu time spent up to now is       13.8 secs

     Computing kpt #:    37
     total cpu time spent up to now is       14.1 secs

     Computing kpt #:    38
     total cpu time spent up to now is       14.5 secs

     Computing kpt #:    39
     total cpu time spent up to now is       14.8 secs

     Computing kpt #:    40
     total cpu time spent up to now is       15.2 secs

     Computing kpt #:    41
     total cpu time spent up to now is       15.5 secs

     Computing kpt #:    42
     total cpu time spent up to now is       15.9 secs

     Computing kpt #:    43
     total cpu time spent up to now is       16.2 secs

     Computing kpt #:    44
     total cpu time spent up to now is       16.6 secs

     Computing kpt #:    45
     total cpu time spent up to now is       16.9 secs

     Computing kpt #:    46
     total cpu time spent up to now is       17.2 secs

     Computing kpt #:    47
     total cpu time spent up to now is       17.6 secs

     Computing kpt #:    48
     total cpu time spent up to now is       17.9 secs

     Computing kpt #:    49
     total cpu time spent up to now is       18.2 secs

     Computing kpt #:    50
     total cpu time spent up to now is       18.6 secs

     ethr =  4.55E-10,  avg # of iterations = 15.9

     total cpu time spent up to now is       18.6 secs

     End of band structure calculation

          k = 0.0000 0.0000 0.0000 (  1423 PWs)   bands (ev):

   -40.2077 -40.1365 -19.0254 -18.6966 -18.6966 -18.6293 -18.6293 -18.5891
     4.1040   7.5988   9.8522  10.8095  10.8095  11.0899  11.2609

          k = 0.0833 0.0481 0.0000 (  1429 PWs)   bands (ev):

   -40.2046 -40.1355 -19.0164 -18.7135 -18.7025 -18.6472 -18.6315 -18.5935
     4.2541   7.7228   9.7173  10.5518  10.9182  11.1607  11.2780

          k = 0.1667 0.0962 0.0000 (  1435 PWs)   bands (ev):

   -40.1956 -40.1329 -18.9905 -18.7600 -18.7183 -18.6951 -18.6377 -18.6064
     4.6904   8.0535   9.4078  10.1113  10.9327  11.1819  11.2176

          k = 0.2500 0.1443 0.0000 (  1421 PWs)   bands (ev):

   -40.1828 -40.1298 -18.9516 -18.8244 -18.7584 -18.7389 -18.6471 -18.6277
     5.3687   8.4372   9.0725   9.6534  10.7361  10.9388  10.9680

          k = 0.3333 0.1925 0.0000 (  1413 PWs)   bands (ev):

   -40.1689 -40.1279 -18.9057 -18.8896 -18.8197 -18.7589 -18.6569 -18.6560
     6.2075   8.5950   8.7981   9.2741  10.7255  10.7520  10.7781

          k = 0.4167 0.2406 0.0000 (  1423 PWs)   bands (ev):

   -40.1571 -40.1281 -18.9376 -18.8635 -18.8628 -18.7732 -18.6860 -18.6645
     7.0680   8.4305   8.6232   8.9936  10.5799  10.6085  10.9967

          k = 0.5000 0.2887 0.0000 (  1416 PWs)   bands (ev):

   -40.1521 -40.1288 -18.9552 -18.8792 -18.8426 -18.7783 -18.7015 -18.6673
     7.6044   8.1684   8.5635   8.8742  10.5283  10.5585  11.1017

          k = 0.4444 0.3849 0.0000 (  1412 PWs)   bands (ev):

   -40.1498 -40.1293 -18.9465 -18.8710 -18.8331 -18.7938 -18.7088 -18.6873
     7.7526   8.2804   8.6071   8.8287  10.4637  10.4825  11.1392

          k = 0.3889 0.4811 0.0000 (  1416 PWs)   bands (ev):

   -40.1438 -40.1314 -18.9247 -18.8507 -18.8281 -18.8066 -18.7348 -18.7311
     8.1187   8.4910   8.6990   8.7354  10.2861  10.3671  11.2498

          k = 0.3333 0.5774 0.0000 (  1404 PWs)   bands (ev):

   -40.1365 -40.1365 -18.9107 -18.8419 -18.8419 -18.7676 -18.7676 -18.7663
     8.5079   8.5079   8.6062   8.7431  10.2499  10.2499  11.3456

          k = 0.2917 0.5052 0.0000 (  1420 PWs)   bands (ev):

   -40.1431 -40.1318 -18.9120 -18.8583 -18.8210 -18.8032 -18.7514 -18.7341
     8.0619   8.6669   8.7191   8.7312  10.2141  10.3801  11.2550

          k = 0.2500 0.4330 0.0000 (  1418 PWs)   bands (ev):

   -40.1523 -40.1287 -18.9008 -18.8673 -18.8439 -18.7905 -18.7239 -18.7002
     7.3547   8.7371   8.8181   8.8407  10.2557  10.5951  11.0178

          k = 0.2083 0.3608 0.0000 (  1424 PWs)   bands (ev):

   -40.1636 -40.1277 -18.8872 -18.8687 -18.8566 -18.7595 -18.6957 -18.6683
     6.5449   8.8111   8.8395   9.0680  10.3877  10.7744  10.8296

          k = 0.1667 0.2887 0.0000 (  1422 PWs)   bands (ev):

   -40.1761 -40.1287 -18.9300 -18.8267 -18.8189 -18.7312 -18.6709 -18.6406
     5.7574   8.6524   8.9734   9.4091  10.6056  10.6898  11.0400

          k = 0.1250 0.2165 0.0000 (  1423 PWs)   bands (ev):

   -40.1882 -40.1310 -18.9684 -18.7848 -18.7626 -18.7051 -18.6513 -18.6182
     5.0735   8.3115   9.2160   9.8132  10.7995  10.8859  11.2098

          k = 0.0833 0.1443 0.0000 (  1437 PWs)   bands (ev):

   -40.1985 -40.1337 -18.9989 -18.7418 -18.7198 -18.6747 -18.6380 -18.6021
     4.5476   7.9522   9.5006  10.2321  10.9975  11.1495  11.1837

          k = 0.0417 0.0722 0.0000 (  1429 PWs)   bands (ev):

   -40.2053 -40.1357 -19.0186 -18.7090 -18.7014 -18.6425 -18.6311 -18.5924
     4.2168   7.6925   9.7492  10.6027  10.8911  11.1906  11.2336

          k = 0.0000 0.0000 0.0000 (  1423 PWs)   bands (ev):

   -40.2077 -40.1365 -19.0254 -18.6966 -18.6966 -18.6293 -18.6293 -18.5891
     4.1040   7.5988   9.8522  10.8095  10.8095  11.0899  11.2609

          k = 0.0000 0.0000 0.1072 (  1429 PWs)   bands (ev):

   -40.2030 -40.1413 -18.9971 -18.6921 -18.6921 -18.6338 -18.6338 -18.6193
     4.2919   7.3324   9.7921  10.7238  10.7238  10.9645  11.1477

          k = 0.0000 0.0000 0.2145 (  1424 PWs)   bands (ev):

   -40.1900 -40.1544 -18.9192 -18.7011 -18.6798 -18.6798 -18.6462 -18.6462
     4.8324   6.5825   9.8790  10.6312  10.6550  10.6550  10.9155

          k = 0.0000 0.0000 0.3217 (  1412 PWs)   bands (ev):

   -40.1723 -40.1723 -18.8112 -18.8112 -18.6629 -18.6629 -18.6629 -18.6629
     5.6493   5.6493  10.2123  10.2123  10.7228  10.7228  10.7228

          k = 0.0714 0.0412 0.3217 (  1428 PWs)   bands (ev):

   -40.1707 -40.1707 -18.8155 -18.8155 -18.6696 -18.6696 -18.6660 -18.6660
     5.7455   5.7455  10.1439  10.1439  10.6969  10.6969  10.7823

          k = 0.1429 0.0825 0.3217 (  1426 PWs)   bands (ev):

   -40.1663 -40.1663 -18.8311 -18.8311 -18.6842 -18.6842 -18.6744 -18.6744
     6.0220   6.0220   9.9742   9.9742  10.6099  10.6099  10.9483

          k = 0.2143 0.1237 0.3217 (  1422 PWs)   bands (ev):

   -40.1599 -40.1599 -18.8622 -18.8622 -18.6963 -18.6963 -18.6865 -18.6865
     6.4404   6.4404   9.7597   9.7597  10.4880  10.4880  11.1782

          k = 0.2857 0.1650 0.3217 (  1424 PWs)   bands (ev):

   -40.1528 -40.1528 -18.9051 -18.9051 -18.7010 -18.7010 -18.6999 -18.6999
     6.9280   6.9280   9.5490   9.5490  10.3981  10.3981  11.3954

          k = 0.3571 0.2062 0.3217 (  1434 PWs)   bands (ev):

   -40.1465 -40.1465 -18.9478 -18.9478 -18.7119 -18.7119 -18.7007 -18.7007
     7.3744   7.3745   9.3910   9.3910  10.3899  10.3899  11.5271

          k = 0.4286 0.2474 0.3217 (  1430 PWs)   bands (ev):

   -40.1420 -40.1420 -18.9785 -18.9785 -18.7202 -18.7202 -18.6991 -18.6991
     7.6657   7.6657   9.3118   9.3118  10.4541  10.4541  11.5764

          k = 0.5000 0.2887 0.3217 (  1444 PWs)   bands (ev):

   -40.1405 -40.1405 -18.9897 -18.9897 -18.7232 -18.7232 -18.6984 -18.6984
     7.7602   7.7602   9.2922   9.2922  10.4987  10.4987  11.5866

          k = 0.4583 0.3608 0.3217 (  1432 PWs)   bands (ev):

   -40.1399 -40.1399 -18.9843 -18.9843 -18.7452 -18.7452 -18.6864 -18.6864
     7.8540   7.8540   9.3243   9.3243  10.2879  10.2879  11.6423

          k = 0.4167 0.4330 0.3217 (  1426 PWs)   bands (ev):

   -40.1386 -40.1386 -18.9695 -18.9695 -18.7837 -18.7837 -18.6745 -18.6745
     8.1179   8.1179   9.3978   9.3978   9.8680   9.8680  11.6435

          k = 0.3750 0.5052 0.3217 (  1412 PWs)   bands (ev):

   -40.1371 -40.1371 -18.9509 -18.9509 -18.8216 -18.8216 -18.6681 -18.6681
     8.4984   8.4984   9.3872   9.3872   9.4993   9.4993  11.6088

          k = 0.3333 0.5774 0.3217 (  1410 PWs)   bands (ev):

   -40.1365 -40.1365 -18.9414 -18.9414 -18.8391 -18.8391 -18.6661 -18.6661
     8.8185   8.8185   9.0977   9.0977   9.4840   9.4840  11.6153

          k = 0.2963 0.5132 0.3217 (  1406 PWs)   bands (ev):

   -40.1372 -40.1372 -18.9462 -18.9462 -18.8266 -18.8266 -18.6675 -18.6675
     8.5514   8.5514   9.2772   9.2772   9.5509   9.5509  11.5791

          k = 0.2593 0.4491 0.3217 (  1418 PWs)   bands (ev):

   -40.1396 -40.1396 -18.9486 -18.9486 -18.8000 -18.8000 -18.6712 -18.6712
     8.1586   8.1586   9.3356   9.3356   9.8074   9.8074  11.4908

          k = 0.2222 0.3849 0.3217 (  1422 PWs)   bands (ev):

   -40.1437 -40.1437 -18.9382 -18.9382 -18.7700 -18.7700 -18.6763 -18.6763
     7.7148   7.7149   9.3883   9.3883  10.0435  10.0435  11.4317

          k = 0.1852 0.3208 0.3217 (  1422 PWs)   bands (ev):

   -40.1493 -40.1493 -18.9142 -18.9142 -18.7416 -18.7415 -18.6811 -18.6811
     7.2322   7.2322   9.4953   9.4953  10.2132  10.2132  11.4017

          k = 0.1481 0.2566 0.3217 (  1420 PWs)   bands (ev):

   -40.1557 -40.1556 -18.8818 -18.8818 -18.7171 -18.7171 -18.6831 -18.6831
     6.7460   6.7460   9.6512   9.6512  10.3589  10.3589  11.3020

          k = 0.1111 0.1925 0.3217 (  1422 PWs)   bands (ev):

   -40.1620 -40.1620 -18.8498 -18.8498 -18.6976 -18.6976 -18.6797 -18.6797
     6.3043   6.3043   9.8343   9.8343  10.5038  10.5039  11.1089

          k = 0.0741 0.1283 0.3217 (  1430 PWs)   bands (ev):

   -40.1674 -40.1674 -18.8266 -18.8266 -18.6815 -18.6815 -18.6720 -18.6720
     5.9527   5.9528  10.0153  10.0153  10.6283  10.6283  10.9093

          k = 0.0370 0.0642 0.3217 (  1428 PWs)   bands (ev):

   -40.1710 -40.1710 -18.8146 -18.8146 -18.6684 -18.6684 -18.6654 -18.6654
     5.7271   5.7271  10.1566  10.1566  10.7020  10.7020  10.7711

          k = 0.0000 0.0000 0.3217 (  1412 PWs)   bands (ev):

   -40.1723 -40.1723 -18.8112 -18.8112 -18.6629 -18.6629 -18.6629 -18.6629
     5.6493   5.6493  10.2123  10.2123  10.7228  10.7228  10.7228

          k = 0.5000 0.2887 0.3217 (  1444 PWs)   bands (ev):

   -40.1405 -40.1405 -18.9897 -18.9897 -18.7232 -18.7232 -18.6984 -18.6984
     7.7602   7.7602   9.2922   9.2922  10.4987  10.4987  11.5866

          k = 0.5000 0.2887 0.2413 (  1438 PWs)   bands (ev):

   -40.1449 -40.1360 -18.9988 -18.9644 -18.7444 -18.7310 -18.7019 -18.6823
     7.6465   7.9125   9.1601   9.1934  10.5786  10.5789  11.1548

          k = 0.5000 0.2887 0.1609 (  1424 PWs)   bands (ev):

   -40.1487 -40.1322 -18.9904 -18.9290 -18.7749 -18.7623 -18.6838 -18.6829
     7.5933   8.0585   8.9202   8.9860  10.6099  10.8105  10.8288

          k = 0.5000 0.2887 0.0804 (  1414 PWs)   bands (ev):

   -40.1512 -40.1297 -18.9696 -18.8946 -18.8197 -18.7742 -18.6941 -18.6716
     7.5932   8.1459   8.6668   8.8928  10.5613  10.6268  11.0204

          k = 0.5000 0.2887 0.0000 (  1416 PWs)   bands (ev):

   -40.1521 -40.1288 -18.9552 -18.8792 -18.8426 -18.7783 -18.7015 -18.6673
     7.6044   8.1684   8.5635   8.8742  10.5283  10.5585  11.1017

          k = 0.3333 0.5774 0.0000 (  1404 PWs)   bands (ev):

   -40.1365 -40.1365 -18.9107 -18.8419 -18.8419 -18.7676 -18.7676 -18.7663
     8.5079   8.5079   8.6062   8.7431  10.2499  10.2499  11.3456

          k = 0.3333 0.5774 0.1072 (  1407 PWs)   bands (ev):

   -40.1365 -40.1365 -18.9012 -18.8805 -18.8805 -18.7762 -18.7285 -18.7285
     8.6009   8.6009   8.6443   8.7741  10.1067  10.1067  11.3366

          k = 0.3333 0.5774 0.2145 (  1407 PWs)   bands (ev):

   -40.1365 -40.1365 -18.9247 -18.9247 -18.8750 -18.8028 -18.6834 -18.6834
     8.7362   8.8261   8.8546   8.8546   9.7656   9.7656  11.3802

          k = 0.3333 0.5774 0.3217 (  1410 PWs)   bands (ev):

   -40.1365 -40.1365 -18.9414 -18.9414 -18.8391 -18.8391 -18.6661 -18.6661
     8.8185   8.8185   9.0977   9.0977   9.4840   9.4840  11.6153

     Writing output data file pwscf.save

     init_run     :      0.67s CPU      0.57s WALL (       1 calls)
     electrons    :     36.27s CPU     17.86s WALL (       1 calls)

     Called by init_run:
     wfcinit      :      0.00s CPU      0.00s WALL (       1 calls)
     wfcinit:atom :      0.00s CPU      0.06s WALL (      50 calls)
     wfcinit:wfcr :      3.34s CPU      1.61s WALL (      50 calls)
     potinit      :      0.05s CPU      0.05s WALL (       1 calls)

     Called by electrons:
     c_bands      :     36.27s CPU     17.86s WALL (       1 calls)
     v_of_rho     :      0.03s CPU      0.04s WALL (       1 calls)
     v_h          :      0.00s CPU      0.00s WALL (       1 calls)
     v_xc         :      0.03s CPU      0.04s WALL (       1 calls)
     newd         :      0.05s CPU      0.10s WALL (       1 calls)

     Called by c_bands:
     init_us_2    :      0.19s CPU      0.07s WALL (      50 calls)
     cegterg      :     31.17s CPU     15.46s WALL (      56 calls)

     Called by sum_band:

     Called by *egterg:
     h_psi        :     22.80s CPU     11.15s WALL (     901 calls)
     s_psi        :      1.20s CPU      0.52s WALL (     901 calls)
     g_psi        :      0.14s CPU      0.13s WALL (     795 calls)
     cdiaghg      :      4.23s CPU      2.24s WALL (     845 calls)
     cegterg:over :      2.05s CPU      1.12s WALL (     795 calls)
     cegterg:upda :      2.17s CPU      0.89s WALL (     795 calls)
     cegterg:last :      1.28s CPU      0.62s WALL (     189 calls)

     Called by h_psi:
     h_psi:pot    :     22.59s CPU     11.05s WALL (     901 calls)
     h_psi:calbec :      0.80s CPU      0.57s WALL (     901 calls)
     vloc_psi     :     20.45s CPU      9.90s WALL (     901 calls)
     add_vuspsi   :      1.33s CPU      0.55s WALL (     901 calls)

     General routines
     calbec       :      0.80s CPU      0.55s WALL (     901 calls)
     fft          :      0.02s CPU      0.02s WALL (      13 calls)
     ffts         :      0.00s CPU      0.00s WALL (       1 calls)
     fftw         :     17.16s CPU      8.36s WALL (   18360 calls)
     interpolate  :      0.00s CPU      0.00s WALL (       1 calls)
     davcio       :      0.00s CPU      0.01s WALL (      50 calls)

     Parallel routines
     fft_scatter  :      1.41s CPU      0.81s WALL (   18374 calls)

     PWSCF        :    37.28s CPU        18.84s WALL


   This run was terminated on:  10:51:45  26Feb2021            

=------------------------------------------------------------------------------=
   JOB DONE.
=------------------------------------------------------------------------------=
