
     Program PWSCF v.6.0 (svn rev. 13079) starts on 25Feb2021 at 15:34:28 

     This program is part of the open-source Quantum ESPRESSO suite
     for quantum simulation of materials; please cite
         "P. Giannozzi et al., J. Phys.:Condens. Matter 21 395502 (2009);
          URL http://www.quantum-espresso.org", 
     in publications or presentations arising from this work. More details at
     http://www.quantum-espresso.org/quote

     Parallel version (MPI), running on     1 processors
     Reading input from espresso.pwi
Warning: card &IONS ignored
Warning: card / ignored
Warning: card &CELL ignored
Warning: card / ignored

     Current dimensions of program PWSCF are:
     Max number of different atomic species (ntypx) = 10
     Max number of k-points (npk) =  40000
     Max angular momentum in pseudopotentials (lmaxx) =  3
     Message from routine input:
     WARNING: "startingwfc" set to atomic+random may spoil restart

     Atomic positions and unit cell read from directory:
     ./pwscf.save/


     IMPORTANT: XC functional enforced from input :
     Exchange-correlation      = PBE ( 1  4  3  4 0 0)
     Any further DFT definition will be discarded
     Please, verify this is what you really want


     Subspace diagonalization in iterative solution of the eigenvalue problem:
     a serial algorithm will be used


     G-vector sticks info
     --------------------
     sticks:   dense  smooth     PW     G-vecs:    dense   smooth      PW
     Sum         459     367    129                 6099     4417     887



     bravais-lattice index     =            0
     lattice parameter (alat)  =       5.5103  a.u.
     unit-cell volume          =     128.7941 (a.u.)^3
     number of atoms/cell      =            1
     number of atomic types    =            1
     number of electrons       =         5.00
     number of Kohn-Sham states=            7
     kinetic-energy cutoff     =      40.0000  Ry
     charge density cutoff     =     200.0000  Ry
     Exchange-correlation      = PBE ( 1  4  3  4 0 0)

     celldm(1)=   5.510267  celldm(2)=   0.000000  celldm(3)=   0.000000
     celldm(4)=   0.000000  celldm(5)=   0.000000  celldm(6)=   0.000000

     crystal axes: (cart. coord. in units of alat)
               a(1) = (  -0.577350   0.577350   0.577350 )  
               a(2) = (   0.577350  -0.577350   0.577350 )  
               a(3) = (   0.577350   0.577350  -0.577350 )  

     reciprocal axes: (cart. coord. in units 2 pi/alat)
               b(1) = (  0.000000  0.866025  0.866025 )  
               b(2) = (  0.866025  0.000000  0.866025 )  
               b(3) = (  0.866025  0.866025  0.000000 )  


     PseudoPot. # 1 for As read from file:
     /home/inukai/tango/tests/1element/qe_fit_v2_As/../pseudo/as_pbe_v1.uspp.F.UPF
     MD5 check sum: a55e54db9b6ff5e275ac1f228f32106c
     Pseudo is Ultrasoft + core correction, Zval =  5.0
     Generated by new atomic code, or converted to UPF format
     Using radial grid of  875 points,  6 beta functions with: 
                l(1) =   0
                l(2) =   0
                l(3) =   1
                l(4) =   1
                l(5) =   2
                l(6) =   2
     Q(r) pseudized with  8 coefficients,  rinner =    1.300   1.300   1.300
                                                       1.300   1.300

     atomic species   valence    mass     pseudopotential
        As             5.00    74.92159     As( 1.00)

     48 Sym. Ops., with inversion, found


                                    s                        frac. trans.

      isym =  1     identity                                     

 cryst.   s( 1) = (     1          0          0      )
                  (     0          1          0      )
                  (     0          0          1      )

 cart.    s( 1) = (  1.0000000  0.0000000  0.0000000 )
                  (  0.0000000  1.0000000  0.0000000 )
                  (  0.0000000  0.0000000  1.0000000 )


      isym =  2     180 deg rotation - cart. axis [0,0,1]        

 cryst.   s( 2) = (     0          1          0      )
                  (     1          0          0      )
                  (    -1         -1         -1      )

 cart.    s( 2) = ( -1.0000000  0.0000000  0.0000000 )
                  (  0.0000000 -1.0000000  0.0000000 )
                  (  0.0000000  0.0000000  1.0000000 )


      isym =  3     180 deg rotation - cart. axis [0,1,0]        

 cryst.   s( 3) = (     0          0          1      )
                  (    -1         -1         -1      )
                  (     1          0          0      )

 cart.    s( 3) = ( -1.0000000  0.0000000  0.0000000 )
                  (  0.0000000  1.0000000  0.0000000 )
                  (  0.0000000  0.0000000 -1.0000000 )


      isym =  4     180 deg rotation - cart. axis [1,0,0]        

 cryst.   s( 4) = (    -1         -1         -1      )
                  (     0          0          1      )
                  (     0          1          0      )

 cart.    s( 4) = (  1.0000000  0.0000000  0.0000000 )
                  (  0.0000000 -1.0000000  0.0000000 )
                  (  0.0000000  0.0000000 -1.0000000 )


      isym =  5     180 deg rotation - cart. axis [1,1,0]        

 cryst.   s( 5) = (    -1          0          0      )
                  (     0         -1          0      )
                  (     1          1          1      )

 cart.    s( 5) = (  0.0000000  1.0000000  0.0000000 )
                  (  1.0000000  0.0000000  0.0000000 )
                  (  0.0000000  0.0000000 -1.0000000 )


      isym =  6     180 deg rotation - cart. axis [1,-1,0]       

 cryst.   s( 6) = (     0         -1          0      )
                  (    -1          0          0      )
                  (     0          0         -1      )

 cart.    s( 6) = (  0.0000000 -1.0000000  0.0000000 )
                  ( -1.0000000  0.0000000  0.0000000 )
                  (  0.0000000  0.0000000 -1.0000000 )


      isym =  7      90 deg rotation - cart. axis [0,0,-1]       

 cryst.   s( 7) = (     1          1          1      )
                  (     0          0         -1      )
                  (    -1          0          0      )

 cart.    s( 7) = (  0.0000000  1.0000000  0.0000000 )
                  ( -1.0000000  0.0000000  0.0000000 )
                  (  0.0000000  0.0000000  1.0000000 )


      isym =  8      90 deg rotation - cart. axis [0,0,1]        

 cryst.   s( 8) = (     0          0         -1      )
                  (     1          1          1      )
                  (     0         -1          0      )

 cart.    s( 8) = (  0.0000000 -1.0000000  0.0000000 )
                  (  1.0000000  0.0000000  0.0000000 )
                  (  0.0000000  0.0000000  1.0000000 )


      isym =  9     180 deg rotation - cart. axis [1,0,1]        

 cryst.   s( 9) = (    -1          0          0      )
                  (     1          1          1      )
                  (     0          0         -1      )

 cart.    s( 9) = (  0.0000000  0.0000000  1.0000000 )
                  (  0.0000000 -1.0000000  0.0000000 )
                  (  1.0000000  0.0000000  0.0000000 )


      isym = 10     180 deg rotation - cart. axis [-1,0,1]       

 cryst.   s(10) = (     0          0         -1      )
                  (     0         -1          0      )
                  (    -1          0          0      )

 cart.    s(10) = (  0.0000000  0.0000000 -1.0000000 )
                  (  0.0000000 -1.0000000  0.0000000 )
                  ( -1.0000000  0.0000000  0.0000000 )


      isym = 11      90 deg rotation - cart. axis [0,1,0]        

 cryst.   s(11) = (     1          1          1      )
                  (    -1          0          0      )
                  (     0         -1          0      )

 cart.    s(11) = (  0.0000000  0.0000000  1.0000000 )
                  (  0.0000000  1.0000000  0.0000000 )
                  ( -1.0000000  0.0000000  0.0000000 )


      isym = 12      90 deg rotation - cart. axis [0,-1,0]       

 cryst.   s(12) = (     0         -1          0      )
                  (     0          0         -1      )
                  (     1          1          1      )

 cart.    s(12) = (  0.0000000  0.0000000 -1.0000000 )
                  (  0.0000000  1.0000000  0.0000000 )
                  (  1.0000000  0.0000000  0.0000000 )


      isym = 13     180 deg rotation - cart. axis [0,1,1]        

 cryst.   s(13) = (     1          1          1      )
                  (     0         -1          0      )
                  (     0          0         -1      )

 cart.    s(13) = ( -1.0000000  0.0000000  0.0000000 )
                  (  0.0000000  0.0000000  1.0000000 )
                  (  0.0000000  1.0000000  0.0000000 )


      isym = 14     180 deg rotation - cart. axis [0,1,-1]       

 cryst.   s(14) = (    -1          0          0      )
                  (     0          0         -1      )
                  (     0         -1          0      )

 cart.    s(14) = ( -1.0000000  0.0000000  0.0000000 )
                  (  0.0000000  0.0000000 -1.0000000 )
                  (  0.0000000 -1.0000000  0.0000000 )


      isym = 15      90 deg rotation - cart. axis [-1,0,0]       

 cryst.   s(15) = (     0         -1          0      )
                  (     1          1          1      )
                  (    -1          0          0      )

 cart.    s(15) = (  1.0000000  0.0000000  0.0000000 )
                  (  0.0000000  0.0000000  1.0000000 )
                  (  0.0000000 -1.0000000  0.0000000 )


      isym = 16      90 deg rotation - cart. axis [1,0,0]        

 cryst.   s(16) = (     0          0         -1      )
                  (    -1          0          0      )
                  (     1          1          1      )

 cart.    s(16) = (  1.0000000  0.0000000  0.0000000 )
                  (  0.0000000  0.0000000 -1.0000000 )
                  (  0.0000000  1.0000000  0.0000000 )


      isym = 17     120 deg rotation - cart. axis [-1,-1,-1]     

 cryst.   s(17) = (     0          0          1      )
                  (     1          0          0      )
                  (     0          1          0      )

 cart.    s(17) = (  0.0000000  1.0000000  0.0000000 )
                  (  0.0000000  0.0000000  1.0000000 )
                  (  1.0000000  0.0000000  0.0000000 )


      isym = 18     120 deg rotation - cart. axis [-1,1,1]       

 cryst.   s(18) = (     1          0          0      )
                  (     0          0          1      )
                  (    -1         -1         -1      )

 cart.    s(18) = (  0.0000000 -1.0000000  0.0000000 )
                  (  0.0000000  0.0000000  1.0000000 )
                  ( -1.0000000  0.0000000  0.0000000 )


      isym = 19     120 deg rotation - cart. axis [1,1,-1]       

 cryst.   s(19) = (     0          1          0      )
                  (    -1         -1         -1      )
                  (     0          0          1      )

 cart.    s(19) = (  0.0000000  1.0000000  0.0000000 )
                  (  0.0000000  0.0000000 -1.0000000 )
                  ( -1.0000000  0.0000000  0.0000000 )


      isym = 20     120 deg rotation - cart. axis [1,-1,1]       

 cryst.   s(20) = (    -1         -1         -1      )
                  (     0          1          0      )
                  (     1          0          0      )

 cart.    s(20) = (  0.0000000 -1.0000000  0.0000000 )
                  (  0.0000000  0.0000000 -1.0000000 )
                  (  1.0000000  0.0000000  0.0000000 )


      isym = 21     120 deg rotation - cart. axis [1,1,1]        

 cryst.   s(21) = (     0          1          0      )
                  (     0          0          1      )
                  (     1          0          0      )

 cart.    s(21) = (  0.0000000  0.0000000  1.0000000 )
                  (  1.0000000  0.0000000  0.0000000 )
                  (  0.0000000  1.0000000  0.0000000 )


      isym = 22     120 deg rotation - cart. axis [-1,1,-1]      

 cryst.   s(22) = (     0          0          1      )
                  (     0          1          0      )
                  (    -1         -1         -1      )

 cart.    s(22) = (  0.0000000  0.0000000  1.0000000 )
                  ( -1.0000000  0.0000000  0.0000000 )
                  (  0.0000000 -1.0000000  0.0000000 )


      isym = 23     120 deg rotation - cart. axis [1,-1,-1]      

 cryst.   s(23) = (     1          0          0      )
                  (    -1         -1         -1      )
                  (     0          1          0      )

 cart.    s(23) = (  0.0000000  0.0000000 -1.0000000 )
                  ( -1.0000000  0.0000000  0.0000000 )
                  (  0.0000000  1.0000000  0.0000000 )


      isym = 24     120 deg rotation - cart. axis [-1,-1,1]      

 cryst.   s(24) = (    -1         -1         -1      )
                  (     1          0          0      )
                  (     0          0          1      )

 cart.    s(24) = (  0.0000000  0.0000000 -1.0000000 )
                  (  1.0000000  0.0000000  0.0000000 )
                  (  0.0000000 -1.0000000  0.0000000 )


      isym = 25     inversion                                    

 cryst.   s(25) = (    -1          0          0      )
                  (     0         -1          0      )
                  (     0          0         -1      )

 cart.    s(25) = ( -1.0000000  0.0000000  0.0000000 )
                  (  0.0000000 -1.0000000  0.0000000 )
                  (  0.0000000  0.0000000 -1.0000000 )


      isym = 26     inv. 180 deg rotation - cart. axis [0,0,1]   

 cryst.   s(26) = (     0         -1          0      )
                  (    -1          0          0      )
                  (     1          1          1      )

 cart.    s(26) = (  1.0000000  0.0000000  0.0000000 )
                  (  0.0000000  1.0000000  0.0000000 )
                  (  0.0000000  0.0000000 -1.0000000 )


      isym = 27     inv. 180 deg rotation - cart. axis [0,1,0]   

 cryst.   s(27) = (     0          0         -1      )
                  (     1          1          1      )
                  (    -1          0          0      )

 cart.    s(27) = (  1.0000000  0.0000000  0.0000000 )
                  (  0.0000000 -1.0000000  0.0000000 )
                  (  0.0000000  0.0000000  1.0000000 )


      isym = 28     inv. 180 deg rotation - cart. axis [1,0,0]   

 cryst.   s(28) = (     1          1          1      )
                  (     0          0         -1      )
                  (     0         -1          0      )

 cart.    s(28) = ( -1.0000000  0.0000000  0.0000000 )
                  (  0.0000000  1.0000000  0.0000000 )
                  (  0.0000000  0.0000000  1.0000000 )


      isym = 29     inv. 180 deg rotation - cart. axis [1,1,0]   

 cryst.   s(29) = (     1          0          0      )
                  (     0          1          0      )
                  (    -1         -1         -1      )

 cart.    s(29) = (  0.0000000 -1.0000000  0.0000000 )
                  ( -1.0000000  0.0000000  0.0000000 )
                  (  0.0000000  0.0000000  1.0000000 )


      isym = 30     inv. 180 deg rotation - cart. axis [1,-1,0]  

 cryst.   s(30) = (     0          1          0      )
                  (     1          0          0      )
                  (     0          0          1      )

 cart.    s(30) = (  0.0000000  1.0000000  0.0000000 )
                  (  1.0000000  0.0000000  0.0000000 )
                  (  0.0000000  0.0000000  1.0000000 )


      isym = 31     inv.  90 deg rotation - cart. axis [0,0,-1]  

 cryst.   s(31) = (    -1         -1         -1      )
                  (     0          0          1      )
                  (     1          0          0      )

 cart.    s(31) = (  0.0000000 -1.0000000  0.0000000 )
                  (  1.0000000  0.0000000  0.0000000 )
                  (  0.0000000  0.0000000 -1.0000000 )


      isym = 32     inv.  90 deg rotation - cart. axis [0,0,1]   

 cryst.   s(32) = (     0          0          1      )
                  (    -1         -1         -1      )
                  (     0          1          0      )

 cart.    s(32) = (  0.0000000  1.0000000  0.0000000 )
                  ( -1.0000000  0.0000000  0.0000000 )
                  (  0.0000000  0.0000000 -1.0000000 )


      isym = 33     inv. 180 deg rotation - cart. axis [1,0,1]   

 cryst.   s(33) = (     1          0          0      )
                  (    -1         -1         -1      )
                  (     0          0          1      )

 cart.    s(33) = (  0.0000000  0.0000000 -1.0000000 )
                  (  0.0000000  1.0000000  0.0000000 )
                  ( -1.0000000  0.0000000  0.0000000 )


      isym = 34     inv. 180 deg rotation - cart. axis [-1,0,1]  

 cryst.   s(34) = (     0          0          1      )
                  (     0          1          0      )
                  (     1          0          0      )

 cart.    s(34) = (  0.0000000  0.0000000  1.0000000 )
                  (  0.0000000  1.0000000  0.0000000 )
                  (  1.0000000  0.0000000  0.0000000 )


      isym = 35     inv.  90 deg rotation - cart. axis [0,1,0]   

 cryst.   s(35) = (    -1         -1         -1      )
                  (     1          0          0      )
                  (     0          1          0      )

 cart.    s(35) = (  0.0000000  0.0000000 -1.0000000 )
                  (  0.0000000 -1.0000000  0.0000000 )
                  (  1.0000000  0.0000000  0.0000000 )


      isym = 36     inv.  90 deg rotation - cart. axis [0,-1,0]  

 cryst.   s(36) = (     0          1          0      )
                  (     0          0          1      )
                  (    -1         -1         -1      )

 cart.    s(36) = (  0.0000000  0.0000000  1.0000000 )
                  (  0.0000000 -1.0000000  0.0000000 )
                  ( -1.0000000  0.0000000  0.0000000 )


      isym = 37     inv. 180 deg rotation - cart. axis [0,1,1]   

 cryst.   s(37) = (    -1         -1         -1      )
                  (     0          1          0      )
                  (     0          0          1      )

 cart.    s(37) = (  1.0000000  0.0000000  0.0000000 )
                  (  0.0000000  0.0000000 -1.0000000 )
                  (  0.0000000 -1.0000000  0.0000000 )


      isym = 38     inv. 180 deg rotation - cart. axis [0,1,-1]  

 cryst.   s(38) = (     1          0          0      )
                  (     0          0          1      )
                  (     0          1          0      )

 cart.    s(38) = (  1.0000000  0.0000000  0.0000000 )
                  (  0.0000000  0.0000000  1.0000000 )
                  (  0.0000000  1.0000000  0.0000000 )


      isym = 39     inv.  90 deg rotation - cart. axis [-1,0,0]  

 cryst.   s(39) = (     0          1          0      )
                  (    -1         -1         -1      )
                  (     1          0          0      )

 cart.    s(39) = ( -1.0000000  0.0000000  0.0000000 )
                  (  0.0000000  0.0000000 -1.0000000 )
                  (  0.0000000  1.0000000  0.0000000 )


      isym = 40     inv.  90 deg rotation - cart. axis [1,0,0]   

 cryst.   s(40) = (     0          0          1      )
                  (     1          0          0      )
                  (    -1         -1         -1      )

 cart.    s(40) = ( -1.0000000  0.0000000  0.0000000 )
                  (  0.0000000  0.0000000  1.0000000 )
                  (  0.0000000 -1.0000000  0.0000000 )


      isym = 41     inv. 120 deg rotation - cart. axis [-1,-1,-1]

 cryst.   s(41) = (     0          0         -1      )
                  (    -1          0          0      )
                  (     0         -1          0      )

 cart.    s(41) = (  0.0000000 -1.0000000  0.0000000 )
                  (  0.0000000  0.0000000 -1.0000000 )
                  ( -1.0000000  0.0000000  0.0000000 )


      isym = 42     inv. 120 deg rotation - cart. axis [-1,1,1]  

 cryst.   s(42) = (    -1          0          0      )
                  (     0          0         -1      )
                  (     1          1          1      )

 cart.    s(42) = (  0.0000000  1.0000000  0.0000000 )
                  (  0.0000000  0.0000000 -1.0000000 )
                  (  1.0000000  0.0000000  0.0000000 )


      isym = 43     inv. 120 deg rotation - cart. axis [1,1,-1]  

 cryst.   s(43) = (     0         -1          0      )
                  (     1          1          1      )
                  (     0          0         -1      )

 cart.    s(43) = (  0.0000000 -1.0000000  0.0000000 )
                  (  0.0000000  0.0000000  1.0000000 )
                  (  1.0000000  0.0000000  0.0000000 )


      isym = 44     inv. 120 deg rotation - cart. axis [1,-1,1]  

 cryst.   s(44) = (     1          1          1      )
                  (     0         -1          0      )
                  (    -1          0          0      )

 cart.    s(44) = (  0.0000000  1.0000000  0.0000000 )
                  (  0.0000000  0.0000000  1.0000000 )
                  ( -1.0000000  0.0000000  0.0000000 )


      isym = 45     inv. 120 deg rotation - cart. axis [1,1,1]   

 cryst.   s(45) = (     0         -1          0      )
                  (     0          0         -1      )
                  (    -1          0          0      )

 cart.    s(45) = (  0.0000000  0.0000000 -1.0000000 )
                  ( -1.0000000  0.0000000  0.0000000 )
                  (  0.0000000 -1.0000000  0.0000000 )


      isym = 46     inv. 120 deg rotation - cart. axis [-1,1,-1] 

 cryst.   s(46) = (     0          0         -1      )
                  (     0         -1          0      )
                  (     1          1          1      )

 cart.    s(46) = (  0.0000000  0.0000000 -1.0000000 )
                  (  1.0000000  0.0000000  0.0000000 )
                  (  0.0000000  1.0000000  0.0000000 )


      isym = 47     inv. 120 deg rotation - cart. axis [1,-1,-1] 

 cryst.   s(47) = (    -1          0          0      )
                  (     1          1          1      )
                  (     0         -1          0      )

 cart.    s(47) = (  0.0000000  0.0000000  1.0000000 )
                  (  1.0000000  0.0000000  0.0000000 )
                  (  0.0000000 -1.0000000  0.0000000 )


      isym = 48     inv. 120 deg rotation - cart. axis [-1,-1,1] 

 cryst.   s(48) = (     1          1          1      )
                  (    -1          0          0      )
                  (     0          0         -1      )

 cart.    s(48) = (  0.0000000  0.0000000  1.0000000 )
                  ( -1.0000000  0.0000000  0.0000000 )
                  (  0.0000000  1.0000000  0.0000000 )


   Cartesian axes

     site n.     atom                  positions (alat units)
         1           As  tau(   1) = (   0.0000000   0.0000000   0.0000000  )

   Crystallographic axes

     site n.     atom                  positions (cryst. coord.)
         1           As  tau(   1) = (  0.0000000  0.0000000  0.0000000  )

     number of k points=    50  gaussian smearing, width (Ry)=  0.0010
                       cart. coord. in units 2pi/alat
        k(    1) = (   0.0000000   0.0000000   0.0000000), wk =   0.0400000
        k(    2) = (   0.0000000   0.0618590   0.0000000), wk =   0.0400000
        k(    3) = (   0.0000000   0.1237179   0.0000000), wk =   0.0400000
        k(    4) = (   0.0000000   0.1855769   0.0000000), wk =   0.0400000
        k(    5) = (   0.0000000   0.2474358   0.0000000), wk =   0.0400000
        k(    6) = (   0.0000000   0.3092948   0.0000000), wk =   0.0400000
        k(    7) = (   0.0000000   0.3711537   0.0000000), wk =   0.0400000
        k(    8) = (   0.0000000   0.4330127   0.0000000), wk =   0.0400000
        k(    9) = (   0.0000000   0.4948717   0.0000000), wk =   0.0400000
        k(   10) = (   0.0000000   0.5567306   0.0000000), wk =   0.0400000
        k(   11) = (   0.0000000   0.6185896   0.0000000), wk =   0.0400000
        k(   12) = (   0.0000000   0.6804485   0.0000000), wk =   0.0400000
        k(   13) = (   0.0000000   0.7423075   0.0000000), wk =   0.0400000
        k(   14) = (   0.0000000   0.8041664   0.0000000), wk =   0.0400000
        k(   15) = (   0.0000000   0.8660254   0.0000000), wk =   0.0400000
        k(   16) = (   0.0433013   0.8227241   0.0000000), wk =   0.0400000
        k(   17) = (   0.0866025   0.7794229   0.0000000), wk =   0.0400000
        k(   18) = (   0.1299038   0.7361216   0.0000000), wk =   0.0400000
        k(   19) = (   0.1732051   0.6928203   0.0000000), wk =   0.0400000
        k(   20) = (   0.2165064   0.6495191   0.0000000), wk =   0.0400000
        k(   21) = (   0.2598076   0.6062178   0.0000000), wk =   0.0400000
        k(   22) = (   0.3031089   0.5629165   0.0000000), wk =   0.0400000
        k(   23) = (   0.3464102   0.5196152   0.0000000), wk =   0.0400000
        k(   24) = (   0.3897114   0.4763140   0.0000000), wk =   0.0400000
        k(   25) = (   0.4330127   0.4330127   0.0000000), wk =   0.0400000
        k(   26) = (   0.3936479   0.3936479   0.0000000), wk =   0.0400000
        k(   27) = (   0.3542831   0.3542831   0.0000000), wk =   0.0400000
        k(   28) = (   0.3149183   0.3149183   0.0000000), wk =   0.0400000
        k(   29) = (   0.2755535   0.2755535   0.0000000), wk =   0.0400000
        k(   30) = (   0.2361887   0.2361887   0.0000000), wk =   0.0400000
        k(   31) = (   0.1968240   0.1968240   0.0000000), wk =   0.0400000
        k(   32) = (   0.1574592   0.1574592   0.0000000), wk =   0.0400000
        k(   33) = (   0.1180944   0.1180944   0.0000000), wk =   0.0400000
        k(   34) = (   0.0787296   0.0787296   0.0000000), wk =   0.0400000
        k(   35) = (   0.0393648   0.0393648   0.0000000), wk =   0.0400000
        k(   36) = (   0.0000000   0.0000000   0.0000000), wk =   0.0400000
        k(   37) = (   0.0309295   0.0309295   0.0309295), wk =   0.0400000
        k(   38) = (   0.0618590   0.0618590   0.0618590), wk =   0.0400000
        k(   39) = (   0.0927884   0.0927884   0.0927884), wk =   0.0400000
        k(   40) = (   0.1237179   0.1237179   0.1237179), wk =   0.0400000
        k(   41) = (   0.1546474   0.1546474   0.1546474), wk =   0.0400000
        k(   42) = (   0.1855769   0.1855769   0.1855769), wk =   0.0400000
        k(   43) = (   0.2165064   0.2165064   0.2165064), wk =   0.0400000
        k(   44) = (   0.2474358   0.2474358   0.2474358), wk =   0.0400000
        k(   45) = (   0.2783653   0.2783653   0.2783653), wk =   0.0400000
        k(   46) = (   0.3092948   0.3092948   0.3092948), wk =   0.0400000
        k(   47) = (   0.3402243   0.3402243   0.3402243), wk =   0.0400000
        k(   48) = (   0.3711537   0.3711537   0.3711537), wk =   0.0400000
        k(   49) = (   0.4020832   0.4020832   0.4020832), wk =   0.0400000
        k(   50) = (   0.4330127   0.4330127   0.4330127), wk =   0.0400000

                       cryst. coord.
        k(    1) = (   0.0000000   0.0000000   0.0000000), wk =   0.0400000
        k(    2) = (   0.0357143  -0.0357143   0.0357143), wk =   0.0400000
        k(    3) = (   0.0714286  -0.0714286   0.0714286), wk =   0.0400000
        k(    4) = (   0.1071429  -0.1071429   0.1071429), wk =   0.0400000
        k(    5) = (   0.1428571  -0.1428571   0.1428571), wk =   0.0400000
        k(    6) = (   0.1785714  -0.1785714   0.1785714), wk =   0.0400000
        k(    7) = (   0.2142857  -0.2142857   0.2142857), wk =   0.0400000
        k(    8) = (   0.2500000  -0.2500000   0.2500000), wk =   0.0400000
        k(    9) = (   0.2857143  -0.2857143   0.2857143), wk =   0.0400000
        k(   10) = (   0.3214286  -0.3214286   0.3214286), wk =   0.0400000
        k(   11) = (   0.3571429  -0.3571429   0.3571429), wk =   0.0400000
        k(   12) = (   0.3928571  -0.3928571   0.3928571), wk =   0.0400000
        k(   13) = (   0.4285714  -0.4285714   0.4285714), wk =   0.0400000
        k(   14) = (   0.4642857  -0.4642857   0.4642857), wk =   0.0400000
        k(   15) = (   0.5000000  -0.5000000   0.5000000), wk =   0.0400000
        k(   16) = (   0.4500000  -0.4500000   0.5000000), wk =   0.0400000
        k(   17) = (   0.4000000  -0.4000000   0.5000000), wk =   0.0400000
        k(   18) = (   0.3500000  -0.3500000   0.5000000), wk =   0.0400000
        k(   19) = (   0.3000000  -0.3000000   0.5000000), wk =   0.0400000
        k(   20) = (   0.2500000  -0.2500000   0.5000000), wk =   0.0400000
        k(   21) = (   0.2000000  -0.2000000   0.5000000), wk =   0.0400000
        k(   22) = (   0.1500000  -0.1500000   0.5000000), wk =   0.0400000
        k(   23) = (   0.1000000  -0.1000000   0.5000000), wk =   0.0400000
        k(   24) = (   0.0500000  -0.0500000   0.5000000), wk =   0.0400000
        k(   25) = (   0.0000000   0.0000000   0.5000000), wk =   0.0400000
        k(   26) = (   0.0000000   0.0000000   0.4545455), wk =   0.0400000
        k(   27) = (   0.0000000   0.0000000   0.4090909), wk =   0.0400000
        k(   28) = (   0.0000000   0.0000000   0.3636364), wk =   0.0400000
        k(   29) = (   0.0000000   0.0000000   0.3181818), wk =   0.0400000
        k(   30) = (   0.0000000   0.0000000   0.2727273), wk =   0.0400000
        k(   31) = (   0.0000000   0.0000000   0.2272727), wk =   0.0400000
        k(   32) = (   0.0000000   0.0000000   0.1818182), wk =   0.0400000
        k(   33) = (   0.0000000   0.0000000   0.1363636), wk =   0.0400000
        k(   34) = (   0.0000000   0.0000000   0.0909091), wk =   0.0400000
        k(   35) = (   0.0000000   0.0000000   0.0454545), wk =   0.0400000
        k(   36) = (   0.0000000   0.0000000   0.0000000), wk =   0.0400000
        k(   37) = (   0.0178571   0.0178571   0.0178571), wk =   0.0400000
        k(   38) = (   0.0357143   0.0357143   0.0357143), wk =   0.0400000
        k(   39) = (   0.0535714   0.0535714   0.0535714), wk =   0.0400000
        k(   40) = (   0.0714286   0.0714286   0.0714286), wk =   0.0400000
        k(   41) = (   0.0892857   0.0892857   0.0892857), wk =   0.0400000
        k(   42) = (   0.1071429   0.1071429   0.1071429), wk =   0.0400000
        k(   43) = (   0.1250000   0.1250000   0.1250000), wk =   0.0400000
        k(   44) = (   0.1428571   0.1428571   0.1428571), wk =   0.0400000
        k(   45) = (   0.1607143   0.1607143   0.1607143), wk =   0.0400000
        k(   46) = (   0.1785714   0.1785714   0.1785714), wk =   0.0400000
        k(   47) = (   0.1964286   0.1964286   0.1964286), wk =   0.0400000
        k(   48) = (   0.2142857   0.2142857   0.2142857), wk =   0.0400000
        k(   49) = (   0.2321429   0.2321429   0.2321429), wk =   0.0400000
        k(   50) = (   0.2500000   0.2500000   0.2500000), wk =   0.0400000

     Dense  grid:     6099 G-vectors     FFT dimensions: (  25,  25,  25)

     Smooth grid:     4417 G-vectors     FFT dimensions: (  24,  24,  24)

     Estimated max dynamical RAM per process >       5.44Mb

     The potential is recalculated from file :
     ./pwscf.save/charge-density.dat

     Starting wfc are    4 randomized atomic wfcs +    3 random wfc

     Band Structure Calculation
     Davidson diagonalization with overlap

     Computing kpt #:     1
     total cpu time spent up to now is        0.7 secs

     Computing kpt #:     2
     total cpu time spent up to now is        0.9 secs

     Computing kpt #:     3
     total cpu time spent up to now is        1.2 secs

     Computing kpt #:     4
     total cpu time spent up to now is        1.4 secs

     Computing kpt #:     5
     total cpu time spent up to now is        1.5 secs

     Computing kpt #:     6
     total cpu time spent up to now is        1.7 secs

     Computing kpt #:     7
     total cpu time spent up to now is        1.9 secs

     Computing kpt #:     8
     total cpu time spent up to now is        2.2 secs

     Computing kpt #:     9
     total cpu time spent up to now is        2.4 secs

     Computing kpt #:    10
     total cpu time spent up to now is        2.6 secs

     Computing kpt #:    11
     total cpu time spent up to now is        2.8 secs

     Computing kpt #:    12
     total cpu time spent up to now is        3.0 secs

     Computing kpt #:    13
     total cpu time spent up to now is        3.2 secs

     Computing kpt #:    14
     total cpu time spent up to now is        3.4 secs

     Computing kpt #:    15
     total cpu time spent up to now is        3.8 secs

     Computing kpt #:    16
     total cpu time spent up to now is        4.0 secs

     Computing kpt #:    17
     total cpu time spent up to now is        4.3 secs

     Computing kpt #:    18
     total cpu time spent up to now is        4.4 secs

     Computing kpt #:    19
     total cpu time spent up to now is        4.6 secs

     Computing kpt #:    20
     total cpu time spent up to now is        4.8 secs

     Computing kpt #:    21
     total cpu time spent up to now is        5.0 secs

     Computing kpt #:    22
     total cpu time spent up to now is        5.2 secs

     Computing kpt #:    23
     total cpu time spent up to now is        5.4 secs

     Computing kpt #:    24
     total cpu time spent up to now is        5.5 secs

     Computing kpt #:    25
     total cpu time spent up to now is        5.7 secs

     Computing kpt #:    26
     total cpu time spent up to now is        5.9 secs

     Computing kpt #:    27
     total cpu time spent up to now is        6.1 secs

     Computing kpt #:    28
     total cpu time spent up to now is        6.3 secs

     Computing kpt #:    29
     total cpu time spent up to now is        6.5 secs

     Computing kpt #:    30
     total cpu time spent up to now is        6.7 secs

     Computing kpt #:    31
     total cpu time spent up to now is        6.9 secs

     Computing kpt #:    32
     total cpu time spent up to now is        7.1 secs

     Computing kpt #:    33
     total cpu time spent up to now is        7.4 secs

     Computing kpt #:    34
     total cpu time spent up to now is        7.6 secs

     Computing kpt #:    35
     total cpu time spent up to now is        7.8 secs

     Computing kpt #:    36
     total cpu time spent up to now is        8.0 secs

     Computing kpt #:    37
     total cpu time spent up to now is        8.2 secs

     Computing kpt #:    38
     total cpu time spent up to now is        8.4 secs

     Computing kpt #:    39
     total cpu time spent up to now is        8.6 secs

     Computing kpt #:    40
     total cpu time spent up to now is        8.8 secs

     Computing kpt #:    41
     total cpu time spent up to now is        9.0 secs

     Computing kpt #:    42
     total cpu time spent up to now is        9.1 secs

     Computing kpt #:    43
     total cpu time spent up to now is        9.3 secs

     Computing kpt #:    44
     total cpu time spent up to now is        9.5 secs

     Computing kpt #:    45
     total cpu time spent up to now is        9.7 secs

     Computing kpt #:    46
     total cpu time spent up to now is        9.9 secs

     Computing kpt #:    47
     total cpu time spent up to now is       10.1 secs

     Computing kpt #:    48
     total cpu time spent up to now is       10.3 secs

     Computing kpt #:    49
     total cpu time spent up to now is       10.5 secs

     Computing kpt #:    50
     total cpu time spent up to now is       10.7 secs

     ethr =  2.00E-09,  avg # of iterations = 28.5

     total cpu time spent up to now is       10.7 secs

     End of band structure calculation

          k = 0.0000 0.0000 0.0000 (   555 PWs)   bands (ev):

    -6.1693  14.7543  14.7543  14.7543  22.1292  22.1292  22.1292

          k = 0.0000 0.0619 0.0000 (   555 PWs)   bands (ev):

    -6.1060  14.4472  14.5645  14.5645  22.0426  22.0426  22.1936

          k = 0.0000 0.1237 0.0000 (   567 PWs)   bands (ev):

    -5.9165  13.6655  14.0350  14.0350  21.9439  21.9439  22.0525

          k = 0.0000 0.1856 0.0000 (   567 PWs)   bands (ev):

    -5.6016  12.6521  13.2654  13.2654  20.5485  22.0173  22.0173

          k = 0.0000 0.2474 0.0000 (   563 PWs)   bands (ev):

    -5.1632  11.5752  12.3679  12.3679  19.1689  22.3056  22.3056

          k = 0.0000 0.3093 0.0000 (   555 PWs)   bands (ev):

    -4.6043  10.5250  11.4322  11.4322  17.9184  22.7947  22.7947

          k = 0.0000 0.3712 0.0000 (   554 PWs)   bands (ev):

    -3.9299   9.5497  10.5190  10.5190  16.7990  23.4628  23.4628

          k = 0.0000 0.4330 0.0000 (   554 PWs)   bands (ev):

    -3.1478   8.6768   9.6665   9.6665  15.8111  24.0432  24.2942

          k = 0.0000 0.4949 0.0000 (   554 PWs)   bands (ev):

    -2.2710   7.9251   8.8989   8.8989  14.9550  22.1495  25.2775

          k = 0.0000 0.5567 0.0000 (   546 PWs)   bands (ev):

    -1.3212   7.3105   8.2318   8.2318  14.2308  19.9938  26.4063

          k = 0.0000 0.6186 0.0000 (   538 PWs)   bands (ev):

    -0.3362   6.8519   7.6755   7.6755  13.6384  17.8723  27.6747

          k = 0.0000 0.6804 0.0000 (   538 PWs)   bands (ev):

     0.6187   6.5740   7.2369   7.2369  13.1778  15.9173  29.0767

          k = 0.0000 0.7423 0.0000 (   534 PWs)   bands (ev):

     1.4382   6.4986   6.9207   6.9207  12.8489  14.2469  30.6080

          k = 0.0000 0.8042 0.0000 (   542 PWs)   bands (ev):

     1.9914   6.5882   6.7298   6.7298  12.6515  13.0440  32.2458

          k = 0.0000 0.8660 0.0000 (   586 PWs)   bands (ev):

     2.1845   6.6660   6.6660   6.6660  12.5857  12.5857  33.3338

          k = 0.0433 0.8227 0.0000 (   540 PWs)   bands (ev):

     2.0039   6.4402   6.7285   6.8646  12.7510  12.9389  31.7997

          k = 0.0866 0.7794 0.0000 (   536 PWs)   bands (ev):

     1.5528   5.8874   6.9150   7.3694  13.2436  13.8737  29.5037

          k = 0.1299 0.7361 0.0000 (   540 PWs)   bands (ev):

     0.9853   5.2085   7.2223   8.0323  14.0472  15.1891  27.2902

          k = 0.1732 0.6928 0.0000 (   542 PWs)   bands (ev):

     0.4057   4.5283   7.6445   8.7675  15.1178  16.7600  25.2073

          k = 0.2165 0.6495 0.0000 (   548 PWs)   bands (ev):

    -0.1298   3.9086   8.1711   9.5478  16.3626  18.5242  23.2739

          k = 0.2598 0.6062 0.0000 (   550 PWs)   bands (ev):

    -0.5911   3.3798   8.7835  10.3710  17.5644  20.4505  21.5104

          k = 0.3031 0.5629 0.0000 (   546 PWs)   bands (ev):

    -0.9615   2.9579   9.4480  11.2337  18.1727  19.9514  22.5216

          k = 0.3464 0.5196 0.0000 (   548 PWs)   bands (ev):

    -1.2313   2.6518  10.0995  12.1066  17.7758  18.6611  23.9159

          k = 0.3897 0.4763 0.0000 (   548 PWs)   bands (ev):

    -1.3951   2.4664  10.6168  12.8813  17.0161  17.7610  25.6970

          k = 0.4330 0.4330 0.0000 (   546 PWs)   bands (ev):

    -1.4499   2.4044  10.8232  13.2409  16.6299  17.4270  27.2814

          k = 0.3936 0.3936 0.0000 (   547 PWs)   bands (ev):

    -1.7211   2.7713  10.8739  13.2697  16.6875  17.4778  26.8439

          k = 0.3543 0.3543 0.0000 (   547 PWs)   bands (ev):

    -2.3355   3.6714  11.0251  13.3545  16.8609  17.6301  26.0864

          k = 0.3149 0.3149 0.0000 (   549 PWs)   bands (ev):

    -3.0435   4.8509  11.2744  13.4898  17.1513  17.8830  25.3648

          k = 0.2756 0.2756 0.0000 (   549 PWs)   bands (ev):

    -3.7328   6.1892  11.6171  13.6668  17.5611  18.2353  24.7576

          k = 0.2362 0.2362 0.0000 (   555 PWs)   bands (ev):

    -4.3590   7.6287  12.0456  13.8724  18.0934  18.6844  24.2948

          k = 0.1968 0.1968 0.0000 (   559 PWs)   bands (ev):

    -4.9028   9.1283  12.5474  14.0905  18.7514  19.2256  23.9967

          k = 0.1575 0.1575 0.0000 (   567 PWs)   bands (ev):

    -5.3547  10.6433  13.1021  14.3021  19.5355  19.8497  23.8788

          k = 0.1181 0.1181 0.0000 (   563 PWs)   bands (ev):

    -5.7095  12.1086  13.6749  14.4883  20.4309  20.5379  23.8894

          k = 0.0787 0.0787 0.0000 (   557 PWs)   bands (ev):

    -5.9645  13.4166  14.2064  14.6326  21.2456  21.3526  23.0927

          k = 0.0394 0.0394 0.0000 (   555 PWs)   bands (ev):

    -6.1181  14.3836  14.6034  14.7234  21.8591  21.9910  22.3841

          k = 0.0000 0.0000 0.0000 (   555 PWs)   bands (ev):

    -6.1693  14.7543  14.7543  14.7543  22.1292  22.1292  22.1292

          k = 0.0309 0.0309 0.0309 (   555 PWs)   bands (ev):

    -6.1219  14.3803  14.6853  14.6853  21.9224  21.9224  22.3862

          k = 0.0619 0.0619 0.0619 (   561 PWs)   bands (ev):

    -5.9797  13.4531  14.4619  14.4619  21.3973  21.3973  22.7927

          k = 0.0928 0.0928 0.0928 (   561 PWs)   bands (ev):

    -5.7435  12.2745  14.0494  14.0494  20.8590  20.8590  23.1217

          k = 0.1237 0.1237 0.1237 (   555 PWs)   bands (ev):

    -5.4148  11.0242  13.4333  13.4333  20.5403  20.5403  23.4638

          k = 0.1546 0.1546 0.1546 (   552 PWs)   bands (ev):

    -4.9958   9.7898  12.6473  12.6473  20.5005  20.5005  23.8637

          k = 0.1856 0.1856 0.1856 (   549 PWs)   bands (ev):

    -4.4906   8.6166  11.7573  11.7573  20.7107  20.7107  24.3320

          k = 0.2165 0.2165 0.2165 (   534 PWs)   bands (ev):

    -3.9056   7.5328  10.8276  10.8276  21.1225  21.1225  24.8685

          k = 0.2474 0.2474 0.2474 (   546 PWs)   bands (ev):

    -3.2519   6.5617   9.9050   9.9050  21.6937  21.6937  25.4644

          k = 0.2784 0.2784 0.2784 (   547 PWs)   bands (ev):

    -2.5489   5.7295   9.0207   9.0207  22.3935  22.3935  26.1025

          k = 0.3093 0.3093 0.3093 (   547 PWs)   bands (ev):

    -1.8318   5.0751   8.1942   8.1942  23.1957  23.1957  26.7465

          k = 0.3402 0.3402 0.3402 (   541 PWs)   bands (ev):

    -1.1626   4.6620   7.4384   7.4384  24.0733  24.0733  27.3197

          k = 0.3712 0.3712 0.3712 (   541 PWs)   bands (ev):

    -0.6353   4.5837   6.7617   6.7617  24.9884  24.9884  27.6586

          k = 0.4021 0.4021 0.4021 (   541 PWs)   bands (ev):

    -0.3342   4.9222   6.1696   6.1696  25.8758  25.8758  27.4877

          k = 0.4330 0.4330 0.4330 (   544 PWs)   bands (ev):

    -0.2522   5.6660   5.6660   5.6660  26.6123  26.6123  26.6123

     Writing output data file pwscf.save

     init_run     :      0.62s CPU      0.41s WALL (       1 calls)
     electrons    :     22.73s CPU     10.12s WALL (       1 calls)

     Called by init_run:
     wfcinit      :      0.00s CPU      0.00s WALL (       1 calls)
     wfcinit:atom :      0.08s CPU      0.01s WALL (      50 calls)
     wfcinit:wfcr :      1.00s CPU      0.41s WALL (      50 calls)
     potinit      :      0.00s CPU      0.02s WALL (       1 calls)

     Called by electrons:
     c_bands      :     22.73s CPU     10.12s WALL (       1 calls)
     v_of_rho     :      0.00s CPU      0.01s WALL (       1 calls)
     v_h          :      0.00s CPU      0.00s WALL (       1 calls)
     v_xc         :      0.00s CPU      0.01s WALL (       1 calls)
     newd         :      0.00s CPU      0.04s WALL (       1 calls)

     Called by c_bands:
     init_us_2    :      0.03s CPU      0.03s WALL (      50 calls)
     cegterg      :     21.44s CPU      9.56s WALL (     106 calls)

     Called by sum_band:

     Called by *egterg:
     h_psi        :     17.25s CPU      7.82s WALL (    1583 calls)
     s_psi        :      0.38s CPU      0.13s WALL (    1583 calls)
     g_psi        :      0.11s CPU      0.05s WALL (    1427 calls)
     cdiaghg      :      2.27s CPU      1.17s WALL (    1477 calls)
     cegterg:over :      0.78s CPU      0.27s WALL (    1427 calls)
     cegterg:upda :      0.89s CPU      0.22s WALL (    1427 calls)
     cegterg:last :      0.25s CPU      0.14s WALL (     347 calls)

     Called by h_psi:
     h_psi:pot    :     17.14s CPU      7.77s WALL (    1583 calls)
     h_psi:calbec :      0.34s CPU      0.17s WALL (    1583 calls)
     vloc_psi     :     16.47s CPU      7.40s WALL (    1583 calls)
     add_vuspsi   :      0.20s CPU      0.15s WALL (    1583 calls)

     General routines
     calbec       :      0.20s CPU      0.15s WALL (    1583 calls)
     fft          :      0.02s CPU      0.00s WALL (      13 calls)
     ffts         :      0.00s CPU      0.01s WALL (       1 calls)
     fftw         :     15.17s CPU      6.80s WALL (   14000 calls)
     interpolate  :      0.00s CPU      0.01s WALL (       1 calls)
     davcio       :      0.00s CPU      0.00s WALL (      50 calls)

     Parallel routines
     fft_scatter  :      0.62s CPU      0.37s WALL (   14014 calls)

     PWSCF        :    23.95s CPU        10.97s WALL


   This run was terminated on:  15:34:39  25Feb2021            

=------------------------------------------------------------------------------=
   JOB DONE.
=------------------------------------------------------------------------------=
