element =  Zr
struct =  hcp
nbands =  -4
path =  GMKGA
kpts =  (8,8,4)
lattice constant a =  3.232
lattice constant b =  3.232
lattice constant c =  5.147
alpha angle =  90.0

  ___ ___ ___ _ _ _  
 |   |   |_  | | | | 
 | | | | | . | | | | 
 |__ |  _|___|_____|  1.3.1b1
 |___|_|             

User:   inukai@DESKTOP-12SE80T
Date:   Thu Feb 11 21:52:25 2021
Arch:   x86_64
Pid:    15017
Python: 3.6.9
gpaw:   /usr/lib/python3/dist-packages/gpaw
_gpaw:  /usr/lib/python3/dist-packages/_gpaw.cpython-36m-x86_64-linux-gnu.so
ase:    /home/inukai/hotcent/ase-3.19.3/ase (version 3.19.3)
numpy:  /home/inukai/.local/lib/python3.6/site-packages/numpy (version 1.19.5)
scipy:  /home/inukai/.local/lib/python3.6/site-packages/scipy (version 1.5.4)
units:  Angstrom and eV
cores:  1

Input parameters:
  kpts: [8 8 4]
  maxiter: 1500
  mixer: {backend: pulay,
          beta: 0.01,
          method: separate,
          nmaxold: 11,
          weight: 100.0}
  mode: {ecut: 400.0,
         name: pw}
  occupations: {name: fermi-dirac,
                width: 0.02}
  spinpol: True
  xc: PBE

System changes: positions, numbers, cell, pbc, initial_charges, initial_magmoms 

Initialize ...

Zr-setup:
  name: Zirconium
  id: f4b60a1bb385e46bf0db97b795f56c22
  Z: 40
  valence: 12
  core: 28
  charge: 0.0
  file: /usr/share/gpaw-setups/Zr.PBE.gz
  cutoffs: 1.25(comp), 2.39(filt), 1.59(core), lmax=2
  valence states:
                energy  radius
    4s(2.00)   -54.478   1.323
    5s(2.00)    -4.438   1.323
    4p(6.00)   -32.467   1.334
    5p(0.00)    -1.470   1.334
    4d(2.00)    -3.600   1.244
    *d          23.611   1.244

  Using partial waves for Zr as LCAO basis

Reference energy: -195787.142470

Spin-polarized calculation.
Magnetic moment:  0.000000

Occupation numbers:
  Fermi-Dirac: width=0.0200 eV

Convergence criteria:
  Maximum total energy change: 0.0005 eV / electron
  Maximum integral of absolute density change: 0.0001 electrons
  Maximum integral of absolute eigenstate change: 4e-08 eV^2
  Maximum number of iterations: 1500

Symmetries present (total): 12

  ( 1  1  0)  ( 1  1  0)  ( 1  0  0)  ( 1  0  0)  ( 0  1  0)  ( 0  1  0)
  ( 0 -1  0)  ( 0 -1  0)  ( 0  1  0)  ( 0  1  0)  (-1 -1  0)  (-1 -1  0)
  ( 0  0  1)  ( 0  0 -1)  ( 0  0  1)  ( 0  0 -1)  ( 0  0  1)  ( 0  0 -1)

  ( 0 -1  0)  ( 0 -1  0)  (-1  0  0)  (-1  0  0)  (-1 -1  0)  (-1 -1  0)
  (-1  0  0)  (-1  0  0)  ( 1  1  0)  ( 1  1  0)  ( 1  0  0)  ( 1  0  0)
  ( 0  0  1)  ( 0  0 -1)  ( 0  0  1)  ( 0  0 -1)  ( 0  0  1)  ( 0  0 -1)
Note: your k-points are not as symmetric as your crystal!

256 k-points: 8 x 8 x 4 Monkhorst-Pack grid
40 k-points in the irreducible part of the Brillouin zone
       k-points in crystal coordinates                weights
   0:     0.06250000   -0.06250000    0.12500000          4/256
   1:     0.06250000   -0.06250000    0.37500000          4/256
   2:     0.06250000    0.06250000    0.12500000          4/256
   3:     0.06250000    0.06250000    0.37500000          4/256
   4:     0.18750000   -0.18750000    0.12500000          4/256
   5:     0.18750000   -0.18750000    0.37500000          4/256
   6:     0.18750000   -0.06250000    0.12500000          8/256
   7:     0.18750000   -0.06250000    0.37500000          8/256
   8:     0.18750000    0.06250000    0.12500000          8/256
   9:     0.18750000    0.06250000    0.37500000          8/256
          ...
  39:     0.43750000    0.43750000    0.37500000          4/256

Wave functions: Plane wave expansion
  Cutoff energy: 400.000 eV
  Number of coefficients (min, max): 837, 855
  Using FFTW library
  Eigensolver: None  MatrixOperator buffer_size: default value or 
                              see value of nblock in input file
Diagonalizer layout: Serial LAPACKOrthonormalizer layout: Serial LAPACK 

Davidson(niter=1, smin=None, normalize=True) 

Densities:
  Coarse grid: 14*14*24 grid
  Fine grid: 28*28*48 grid
  Total Charge: 0.000000 

Density mixing:
  Method: separate
  Backend: pulay
  Linear mixing parameter: 0.01
  Mixing with 11 old densities
  Damping of long wave oscillations: 100 

Hamiltonian:
  XC and Coulomb potentials evaluated on a 28*28*48 grid
  Using the PBE Exchange-Correlation functional
 

Memory estimate:
  Process memory now: 929.38 MiB
  Calculator: 38.10 MiB
    Density: 3.57 MiB
      Arrays: 1.26 MiB
      Localized functions: 0.74 MiB
      Mixer: 1.58 MiB
    Hamiltonian: 0.95 MiB
      Arrays: 0.93 MiB
      XC: 0.00 MiB
      Poisson: 0.00 MiB
      vbar: 0.01 MiB
    Wavefunctions: 33.58 MiB
      Arrays psit_nG: 27.14 MiB
      Eigensolver: 0.51 MiB
      Projections: 1.14 MiB
      Projectors: 3.87 MiB
      Overlap op: 0.35 MiB
      PW-descriptor: 0.57 MiB

Total number of cores used: 1

Number of atoms: 2
Number of atomic orbitals: 26
Number of bands in calculation: 26
Bands to converge: occupied states only
Number of valence electrons: 24

... initialized

Initializing position-dependent things.

Density initialized from atomic densities
Creating initial wave functions:
  26 bands from LCAO basis set

                  
                  
                  
                  
         Zr       
                  
                  
                  
       Zr         
                  
                  
                  
                  

Positions:
   0 Zr     0.000000    0.000000    0.000000
   1 Zr    -0.000000    1.865996    2.573500

Unit cell:
           periodic     x           y           z      points  spacing
  1. axis:    yes    3.232000    0.000000    0.000000    14     0.1999
  2. axis:    yes   -1.616000    2.798994    0.000000    14     0.1999
  3. axis:    yes    0.000000    0.000000    5.147000    24     0.2145

  Lengths:   3.232000   3.232000   5.147000
  Angles:   90.000000  90.000000 120.000000

Effective grid spacing dv^(1/3) = 0.2147

                     log10-error:    total        iterations:
           time      wfs    density  energy       fermi  poisson  magmom
iter:   1  21:52:35  +2.29   +inf   -14.883076    3               -0.0000
iter:   2  21:52:39  -0.32   +inf   -14.928178    4               +0.0000
iter:   3  21:52:43  -0.69   +inf   -14.939492    3               +0.0000
iter:   4  21:52:48  -1.28  -1.38   -14.933522    3               +0.0000
iter:   5  21:52:53  -1.58  -1.38   -14.845342    5               +0.0000
iter:   6  21:52:59  +0.12  -1.43   -14.685938    7               +0.0000
iter:   7  21:53:04  -1.49  -2.09   -14.698779    4               +0.0000
iter:   8  21:53:09  -1.37  -2.07   -14.760923    4               +0.0000
iter:   9  21:53:14  -0.88  -1.93   -14.676118    5               +0.0000
iter:  10  21:53:19  -2.36  -2.30   -14.669897    4               +0.0000
iter:  11  21:53:24  -2.72  -2.40   -14.670159    2               +0.0000
iter:  12  21:53:29  -3.51  -2.41   -14.670738    3               +0.0000
iter:  13  21:53:33  -3.81  -2.40   -14.669835    3               +0.0000
iter:  14  21:53:39  -2.45  -2.42   -14.665991    4               -0.0000
iter:  15  21:53:43  -2.53  -2.57   -14.664484    4               -0.0000
iter:  16  21:53:48  -3.65  -2.77   -14.664498    3               +0.0000
iter:  17  21:53:53  -4.02  -2.91   -14.664583    3               +0.0000
iter:  18  21:53:58  -4.30  -3.13   -14.664692    3               +0.0000
iter:  19  21:54:03  -3.50  -3.13   -14.664545    3               -0.0000
iter:  20  21:54:08  -4.87  -3.77   -14.664540    2               -0.0000
iter:  21  21:54:13  -5.38  -3.93   -14.664537    2               -0.0000
iter:  22  21:54:18  -6.10  -4.07   -14.664539    2               +0.0000
iter:  23  21:54:23  -5.02  -3.97   -14.664534    3               +0.0000
iter:  24  21:54:28  -6.51  -4.37   -14.664534    2               +0.0000
iter:  25  21:54:33  -6.09  -4.14   -14.664534    2               -0.0000
iter:  26  21:54:38  -6.51  -4.11   -14.664534    2               -0.0000
iter:  27  21:54:43  -7.24  -4.84   -14.664534    2               -0.0000
iter:  28  21:54:48  -7.48  -4.80   -14.664534    2               -0.0000

Converged after 28 iterations.

Dipole moment: (-3.138320, 1.811910, -0.000000) |e|*Ang

Total magnetic moment: -0.000000
Local magnetic moments:
   0 Zr -0.000000
   1 Zr -0.000000

Energy contributions relative to reference atoms: (reference = -195787.142470)

Kinetic:         +8.322225
Potential:       -9.006901
External:        +0.000000
XC:             -14.417386
Entropy (-ST):   -0.001478
Local:           +0.438267
--------------------------
Free energy:    -14.665273
Extrapolated:   -14.664534

Spin contamination: 0.000000 electrons
Fermi level: 9.34281

Warning: Showing only first 2 kpts
                      Up                     Down
 Kpt  Band  Eigenvalues  Occupancy  Eigenvalues  Occupancy
  0    10      9.94185    0.00000      9.94185    0.00000
  0    11     10.06605    0.00000     10.06605    0.00000
  0    12     10.28521    0.00000     10.28521    0.00000
  0    13     10.45151    0.00000     10.45151    0.00000

  1    10      9.27776    0.01504      9.27776    0.01504
  1    11      9.64728    0.00000      9.64728    0.00000
  1    12      9.99366    0.00000      9.99366    0.00000
  1    13     10.15242    0.00000     10.15242    0.00000


Input parameters:
  convergence: {bands: all}
  eigensolver: {name: cg,
                niter: 5}
  fixdensity: True
  kpts: {npoints: 50,
         path: GMKGA}
  nbands: -4
  symmetry: off

Initialize ...

Zr-setup:
  name: Zirconium
  id: f4b60a1bb385e46bf0db97b795f56c22
  Z: 40
  valence: 12
  core: 28
  charge: 0.0
  file: /usr/share/gpaw-setups/Zr.PBE.gz
  cutoffs: 1.25(comp), 2.39(filt), 1.59(core), lmax=2
  valence states:
                energy  radius
    4s(2.00)   -54.478   1.323
    5s(2.00)    -4.438   1.323
    4p(6.00)   -32.467   1.334
    5p(0.00)    -1.470   1.334
    4d(2.00)    -3.600   1.244
    *d          23.611   1.244

  Using partial waves for Zr as LCAO basis

Reference energy: -195787.142470

Spin-polarized calculation.
Magnetic moment:  0.000000

Occupation numbers:
  Fixed Fermi level
  Fermi-Dirac: width=0.0200 eV

Convergence criteria:
  Maximum total energy change: 0.0005 eV / electron
  Maximum integral of absolute density change: 0.0001 electrons
  Maximum integral of absolute eigenstate change: 4e-08 eV^2
  Maximum number of iterations: 1500

Symmetries present (total): 1

  ( 1  0  0)
  ( 0  1  0)
  ( 0  0  1)

50 k-points
50 k-points in the irreducible part of the Brillouin zone
       k-points in crystal coordinates                weights
   0:     0.00000000    0.00000000    0.00000000          1/50
   1:     0.03571429    0.00000000    0.00000000          1/50
   2:     0.07142857    0.00000000    0.00000000          1/50
   3:     0.10714286    0.00000000    0.00000000          1/50
   4:     0.14285714    0.00000000    0.00000000          1/50
   5:     0.17857143    0.00000000    0.00000000          1/50
   6:     0.21428571    0.00000000    0.00000000          1/50
   7:     0.25000000    0.00000000    0.00000000          1/50
   8:     0.28571429    0.00000000    0.00000000          1/50
   9:     0.32142857    0.00000000    0.00000000          1/50
          ...
  49:     0.00000000    0.00000000    0.50000000          1/50

Wave functions: Plane wave expansion
  Cutoff energy: 400.000 eV
  Number of coefficients (min, max): 820, 861
  Using FFTW library
  Eigensolver: None  MatrixOperator buffer_size: default value or 
                              see value of nblock in input file
Diagonalizer layout: Serial LAPACKOrthonormalizer layout: Serial LAPACK 

CG(niter=5, rtol=3.0e-01) 

No density mixing

Memory estimate:
  Process memory now: 1055.14 MiB
  Calculator: 32.41 MiB
    Density: 3.57 MiB
      Arrays: 1.26 MiB
      Localized functions: 0.74 MiB
      Mixer: 1.58 MiB
    Hamiltonian: 0.95 MiB
      Arrays: 0.93 MiB
      XC: 0.00 MiB
      Poisson: 0.00 MiB
      vbar: 0.01 MiB
    Wavefunctions: 27.88 MiB
      Arrays psit_nG: 21.02 MiB
      Eigensolver: 0.28 MiB
      Projections: 0.88 MiB
      Projectors: 4.83 MiB
      Overlap op: 0.21 MiB
      PW-descriptor: 0.66 MiB

Total number of cores used: 1

Number of atoms: 2
Number of atomic orbitals: 26
Number of bands in calculation: 16
Bands to converge: all
Number of valence electrons: 24

... initialized

Initializing position-dependent things.

Creating initial wave functions:
  16 bands from LCAO basis set

                  
                  
                  
                  
         Zr       
                  
                  
                  
       Zr         
                  
                  
                  
                  

Positions:
   0 Zr     0.000000    0.000000    0.000000
   1 Zr    -0.000000    1.865996    2.573500

Unit cell:
           periodic     x           y           z      points  spacing
  1. axis:    yes    3.232000    0.000000    0.000000    14     0.1999
  2. axis:    yes   -1.616000    2.798994    0.000000    14     0.1999
  3. axis:    yes    0.000000    0.000000    5.147000    24     0.2145

  Lengths:   3.232000   3.232000   5.147000
  Angles:   90.000000  90.000000 120.000000

Effective grid spacing dv^(1/3) = 0.2147

                     log10-error:    total        iterations:
           time      wfs    density  energy       fermi  poisson  magmom
iter:   1  21:55:13  +0.50          -14.565689    26              +0.0000
iter:   2  21:55:33  -0.65          -14.581839    33              +0.0000
iter:   3  21:55:54  -1.72          -14.583810    32              +0.0000
iter:   4  21:56:16  -2.58          -14.584061    33              +0.0000
iter:   5  21:56:37  -2.80          -14.584079    32              +0.0000
iter:   6  21:56:58  -4.16          -14.584081    33              +0.0000
iter:   7  21:57:18  -4.43          -14.584081    31              +0.0000
iter:   8  21:57:33  -4.81          -14.584081    33              +0.0000
iter:   9  21:57:45  -5.39          -14.584081    33              +0.0000
iter:  10  21:57:53  -5.05          -14.584081    32              +0.0000
iter:  11  21:57:56  -5.69          -14.584081    32              +0.0000
iter:  12  21:57:59  -5.71          -14.584081    32              +0.0000
iter:  13  21:58:02  -5.98          -14.584081    32              +0.0000
iter:  14  21:58:04  -6.59          -14.584081    32              +0.0000
iter:  15  21:58:06  -6.51          -14.584081    32              +0.0000
iter:  16  21:58:09  -6.76          -14.584081    32              +0.0000
iter:  17  21:58:11  -6.95          -14.584081    32              +0.0000
iter:  18  21:58:13  -7.18          -14.584081    32              +0.0000
iter:  19  21:58:15  -7.48          -14.584081    32              +0.0000

Converged after 19 iterations.

Dipole moment: (-3.138320, 1.811910, -0.000000) |e|*Ang

Total magnetic moment: 0.000000
Local magnetic moments:
   0 Zr -0.000000
   1 Zr -0.000000

Energy contributions relative to reference atoms: (reference = -195787.142470)

Kinetic:         +8.404403
Potential:       -9.006907
External:        +0.000000
XC:             -14.417392
Entropy (-ST):   -0.004911
Local:           +0.438270
--------------------------
Free energy:    -14.586537
Extrapolated:   -14.584081

Spin contamination: 0.000000 electrons
Fixed Fermi level: 9.34281

Warning: Showing only first 2 kpts
                      Up                     Down
 Kpt  Band  Eigenvalues  Occupancy  Eigenvalues  Occupancy
  0    10     10.26408    0.00000     10.26408    0.00000
  0    11     10.26501    0.00000     10.26501    0.00000
  0    12     10.41300    0.00000     10.41300    0.00000
  0    13     10.57147    0.00000     10.57147    0.00000

  1    10     10.12215    0.00000     10.12215    0.00000
  1    11     10.29765    0.00000     10.29765    0.00000
  1    12     10.49442    0.00000     10.49442    0.00000
  1    13     10.53513    0.00000     10.53513    0.00000


Timing:                              incl.     excl.
-----------------------------------------------------------
Hamiltonian:                         1.151     0.001   0.0% |
 Atomic:                             0.821     0.003   0.0% |
  XC Correction:                     0.818     0.818   0.2% |
 Calculate atomic Hamiltonians:      0.030     0.030   0.0% |
 Communicate:                        0.000     0.000   0.0% |
 Initialize Hamiltonian:             0.000     0.000   0.0% |
 Poisson:                            0.001     0.001   0.0% |
 XC 3D grid:                         0.298     0.298   0.1% |
LCAO initialization:                 9.118     0.200   0.1% |
 LCAO eigensolver:                   2.669     0.019   0.0% |
  Calculate projections:             0.014     0.014   0.0% |
  DenseAtomicCorrection:             0.053     0.053   0.0% |
  Distribute overlap matrix:         0.008     0.008   0.0% |
  Orbital Layouts:                   0.301     0.301   0.1% |
  Potential matrix:                  1.234     1.234   0.4% |
  Sum over cells:                    1.039     1.039   0.3% |
 LCAO to grid:                       5.040     5.040   1.4% ||
 Set positions (LCAO WFS):           1.209     0.002   0.0% |
  Basic WFS set positions:           0.001     0.001   0.0% |
  Basis functions set positions:     0.000     0.000   0.0% |
  TCI: Calculate S, T, P:            1.206     1.206   0.3% |
PWDescriptor:                        0.037     0.037   0.0% |
Redistribute:                        0.000     0.000   0.0% |
SCF-cycle:                         337.575     8.750   2.5% ||
 CG:                               174.040   159.578  45.4% |-----------------|
  CG: orthonormalize:               14.462     7.551   2.1% ||
   CG: overlap:                      4.360     4.360   1.2% |
   CG: overlap2:                     2.551     2.551   0.7% |
 Davidson:                          80.096    35.730  10.2% |---|
  calc. matrices:                   27.990    27.990   8.0% |--|
  diagonalize:                      14.514    14.514   4.1% |-|
  rotate_psi:                        1.862     1.862   0.5% |
 Density:                           10.984     0.001   0.0% |
  Atomic density matrices:           0.099     0.099   0.0% |
  Mix:                               0.518     0.518   0.1% |
  Multipole moments:                 0.003     0.003   0.0% |
  Pseudo density:                   10.363    10.167   2.9% ||
   Symmetrize density:               0.195     0.195   0.1% |
 Hamiltonian:                       14.158     0.022   0.0% |
  Atomic:                           10.716     0.035   0.0% |
   XC Correction:                   10.681    10.681   3.0% ||
  Calculate atomic Hamiltonians:     0.346     0.346   0.1% |
  Communicate:                       0.000     0.000   0.0% |
  Poisson:                           0.011     0.011   0.0% |
  XC 3D grid:                        3.063     3.063   0.9% |
 Orthonormalize:                     0.537     0.016   0.0% |
  Band Layouts:                      0.020     0.004   0.0% |
   Inverse Cholesky:                 0.016     0.016   0.0% |
  calc_s_matrix:                     0.075     0.075   0.0% |
  projections:                       0.366     0.366   0.1% |
  rotate_psi:                        0.060     0.060   0.0% |
 Residuals:                          4.395     4.395   1.3% ||
 Subspace diag:                     44.614     0.612   0.2% |
  Band Layouts:                      4.189     0.169   0.0% |
   Diagonalize:                      3.890     3.890   1.1% |
   Distribute results:               0.130     0.130   0.0% |
  calc_h_matrix:                    37.589    37.589  10.7% |---|
  rotate_psi:                        2.224     2.224   0.6% |
Set symmetry:                        0.027     0.027   0.0% |
Other:                               3.587     3.587   1.0% |
-----------------------------------------------------------
Total:                                       351.497 100.0%

Date: Thu Feb 11 21:58:17 2021
element =  Zr
struct =  hcp
kpts =  (8,8,4)
element =  Zr
configuration =  [Kr] 4d2 5s2 5p0
valence =  ['4d', '5s', '5p']
occupations =  {'4d': 2, '5s': 2}
nls =  4d
rNum =  600
lmax =  d
*******************************************
Starting confinement parameter optimization
Adjustable parameters and initial values:
  Zr_4d.r0 : 6.614041
  Zr_5p.r0 : 6.614041
  Zr_5s.r0 : 6.614041
  Zr_n.r0 : 9.921062
*******************************************

OPT_VAL: 6.614041440429249   6.614041440429249   6.614041440429249   9.921062160643874
VCONF:
  Zr_4d : PowerConfinement(r0=6.614041, s=2.000000)
  Zr_5p : PowerConfinement(r0=6.614041, s=2.000000)
  Zr_5s : PowerConfinement(r0=6.614041, s=2.000000)
  Zr_n : PowerConfinement(r0=9.921062, s=2.000000)
RESIDUAL: 0.0

OPT_VAL: 6.814041440429249   6.614041440429249   6.614041440429249   9.921062160643874
VCONF:
  Zr_4d : PowerConfinement(r0=6.814041, s=2.000000)
  Zr_5p : PowerConfinement(r0=6.614041, s=2.000000)
  Zr_5s : PowerConfinement(r0=6.614041, s=2.000000)
  Zr_n : PowerConfinement(r0=9.921062, s=2.000000)
RESIDUAL: 0.0

OPT_VAL: 6.614041440429249   6.814041440429249   6.614041440429249   9.921062160643874
VCONF:
  Zr_4d : PowerConfinement(r0=6.614041, s=2.000000)
  Zr_5p : PowerConfinement(r0=6.814041, s=2.000000)
  Zr_5s : PowerConfinement(r0=6.614041, s=2.000000)
  Zr_n : PowerConfinement(r0=9.921062, s=2.000000)
RESIDUAL: 0.0

OPT_VAL: 6.614041440429249   6.614041440429249   6.814041440429249   9.921062160643874
VCONF:
  Zr_4d : PowerConfinement(r0=6.614041, s=2.000000)
  Zr_5p : PowerConfinement(r0=6.614041, s=2.000000)
  Zr_5s : PowerConfinement(r0=6.814041, s=2.000000)
  Zr_n : PowerConfinement(r0=9.921062, s=2.000000)
RESIDUAL: 0.0

OPT_VAL: 6.614041440429249   6.614041440429249   6.614041440429249   10.121062160643874
VCONF:
  Zr_4d : PowerConfinement(r0=6.614041, s=2.000000)
  Zr_5p : PowerConfinement(r0=6.614041, s=2.000000)
  Zr_5s : PowerConfinement(r0=6.614041, s=2.000000)
  Zr_n : PowerConfinement(r0=10.121062, s=2.000000)
RESIDUAL: 0.0

OPT_VAL: 6.639041440429249   6.614041440429249   6.614041440429249   9.921062160643874
VCONF:
  Zr_4d : PowerConfinement(r0=6.639041, s=2.000000)
  Zr_5p : PowerConfinement(r0=6.614041, s=2.000000)
  Zr_5s : PowerConfinement(r0=6.614041, s=2.000000)
  Zr_n : PowerConfinement(r0=9.921062, s=2.000000)
RESIDUAL: 0.0

OPT_VAL: 6.614041440429249   6.639041440429249   6.614041440429249   9.921062160643874
VCONF:
  Zr_4d : PowerConfinement(r0=6.614041, s=2.000000)
  Zr_5p : PowerConfinement(r0=6.639041, s=2.000000)
  Zr_5s : PowerConfinement(r0=6.614041, s=2.000000)
  Zr_n : PowerConfinement(r0=9.921062, s=2.000000)
RESIDUAL: 0.0

OPT_VAL: 6.614041440429249   6.614041440429249   6.639041440429249   9.921062160643874
VCONF:
  Zr_4d : PowerConfinement(r0=6.614041, s=2.000000)
  Zr_5p : PowerConfinement(r0=6.614041, s=2.000000)
  Zr_5s : PowerConfinement(r0=6.639041, s=2.000000)
  Zr_n : PowerConfinement(r0=9.921062, s=2.000000)
RESIDUAL: 0.0

OPT_VAL: 6.614041440429249   6.614041440429249   6.614041440429249   9.946062160643875
VCONF:
  Zr_4d : PowerConfinement(r0=6.614041, s=2.000000)
  Zr_5p : PowerConfinement(r0=6.614041, s=2.000000)
  Zr_5s : PowerConfinement(r0=6.614041, s=2.000000)
  Zr_n : PowerConfinement(r0=9.946062, s=2.000000)
RESIDUAL: 0.0

OPT_VAL: 6.619041440429249   6.614041440429249   6.614041440429249   9.921062160643874
VCONF:
  Zr_4d : PowerConfinement(r0=6.619041, s=2.000000)
  Zr_5p : PowerConfinement(r0=6.614041, s=2.000000)
  Zr_5s : PowerConfinement(r0=6.614041, s=2.000000)
  Zr_n : PowerConfinement(r0=9.921062, s=2.000000)
RESIDUAL: 0.0

OPT_VAL: 6.614041440429249   6.619041440429249   6.614041440429249   9.921062160643874
VCONF:
  Zr_4d : PowerConfinement(r0=6.614041, s=2.000000)
  Zr_5p : PowerConfinement(r0=6.619041, s=2.000000)
  Zr_5s : PowerConfinement(r0=6.614041, s=2.000000)
  Zr_n : PowerConfinement(r0=9.921062, s=2.000000)
RESIDUAL: 0.0

OPT_VAL: 6.614041440429249   6.614041440429249   6.619041440429249   9.921062160643874
VCONF:
  Zr_4d : PowerConfinement(r0=6.614041, s=2.000000)
  Zr_5p : PowerConfinement(r0=6.614041, s=2.000000)
  Zr_5s : PowerConfinement(r0=6.619041, s=2.000000)
  Zr_n : PowerConfinement(r0=9.921062, s=2.000000)
RESIDUAL: 0.0

OPT_VAL: 6.614041440429249   6.614041440429249   6.614041440429249   9.926062160643875
VCONF:
  Zr_4d : PowerConfinement(r0=6.614041, s=2.000000)
  Zr_5p : PowerConfinement(r0=6.614041, s=2.000000)
  Zr_5s : PowerConfinement(r0=6.614041, s=2.000000)
  Zr_n : PowerConfinement(r0=9.926062, s=2.000000)
RESIDUAL: 0.0

*******************************************
Optimization finished after 13 iterations
Adjustable parameters and final values:
  Zr_4d.r0 : 6.614041
  Zr_5p.r0 : 6.614041
  Zr_5s.r0 : 6.614041
  Zr_n.r0 : 9.921062
*******************************************

VCONF:
  Zr_4d : PowerConfinement(r0=6.614041, s=2.000000)
  Zr_5p : PowerConfinement(r0=6.614041, s=2.000000)
  Zr_5s : PowerConfinement(r0=6.614041, s=2.000000)
  Zr_n : PowerConfinement(r0=9.921062, s=2.000000)
