element =  Zn
struct =  hcp
nbands =  -4
path =  GMKGA
kpts =  (8,8,4)

  ___ ___ ___ _ _ _  
 |   |   |_  | | | | 
 | | | | | . | | | | 
 |__ |  _|___|_____|  1.3.1b1
 |___|_|             

User:   inukai@DESKTOP-12SE80T
Date:   Tue Feb  2 22:08:07 2021
Arch:   x86_64
Pid:    2612
Python: 3.6.9
gpaw:   /usr/lib/python3/dist-packages/gpaw
_gpaw:  /usr/lib/python3/dist-packages/_gpaw.cpython-36m-x86_64-linux-gnu.so
ase:    /home/inukai/hotcent/ase-3.19.3/ase (version 3.19.3)
numpy:  /home/inukai/.local/lib/python3.6/site-packages/numpy (version 1.19.5)
scipy:  /home/inukai/.local/lib/python3.6/site-packages/scipy (version 1.5.4)
units:  Angstrom and eV
cores:  1

Input parameters:
  kpts: [8 8 4]
  maxiter: 200
  mixer: {backend: pulay,
          beta: 0.05,
          method: separate,
          nmaxold: 8,
          weight: 100}
  mode: {ecut: 400.0,
         name: pw}
  occupations: {name: fermi-dirac,
                width: 0.02}
  spinpol: False
  xc: PBE

System changes: positions, numbers, cell, pbc, initial_charges, initial_magmoms 

Initialize ...

Zn-setup:
  name: Zinc
  id: 9da902d12d12265ad8e0029a903fe3c0
  Z: 30
  valence: 12
  core: 18
  charge: 0.0
  file: /usr/share/gpaw-setups/Zn.PBE.gz
  cutoffs: 1.16(comp), 2.14(filt), 2.28(core), lmax=2
  valence states:
                energy  radius
    4s(2.00)    -5.977   1.286
    4p(0.00)    -1.117   1.270
    3d(10.00)   -10.142   1.180
    *s          21.234   1.286
    *p          26.095   1.270
    *d          17.070   1.180

  Using partial waves for Zn as LCAO basis

Reference energy: -97722.653306

Spin-paired calculation

Occupation numbers:
  Fermi-Dirac: width=0.0200 eV

Convergence criteria:
  Maximum total energy change: 0.0005 eV / electron
  Maximum integral of absolute density change: 0.0001 electrons
  Maximum integral of absolute eigenstate change: 4e-08 eV^2
  Maximum number of iterations: 200

Symmetries present (total): 12

  ( 1  1  0)  ( 1  1  0)  ( 1  0  0)  ( 1  0  0)  ( 0  1  0)  ( 0  1  0)
  ( 0 -1  0)  ( 0 -1  0)  ( 0  1  0)  ( 0  1  0)  (-1 -1  0)  (-1 -1  0)
  ( 0  0  1)  ( 0  0 -1)  ( 0  0  1)  ( 0  0 -1)  ( 0  0  1)  ( 0  0 -1)

  ( 0 -1  0)  ( 0 -1  0)  (-1  0  0)  (-1  0  0)  (-1 -1  0)  (-1 -1  0)
  (-1  0  0)  (-1  0  0)  ( 1  1  0)  ( 1  1  0)  ( 1  0  0)  ( 1  0  0)
  ( 0  0  1)  ( 0  0 -1)  ( 0  0  1)  ( 0  0 -1)  ( 0  0  1)  ( 0  0 -1)
Note: your k-points are not as symmetric as your crystal!

256 k-points: 8 x 8 x 4 Monkhorst-Pack grid
40 k-points in the irreducible part of the Brillouin zone
       k-points in crystal coordinates                weights
   0:     0.06250000   -0.06250000    0.12500000          4/256
   1:     0.06250000   -0.06250000    0.37500000          4/256
   2:     0.06250000    0.06250000    0.12500000          4/256
   3:     0.06250000    0.06250000    0.37500000          4/256
   4:     0.18750000   -0.18750000    0.12500000          4/256
   5:     0.18750000   -0.18750000    0.37500000          4/256
   6:     0.18750000   -0.06250000    0.12500000          8/256
   7:     0.18750000   -0.06250000    0.37500000          8/256
   8:     0.18750000    0.06250000    0.12500000          8/256
   9:     0.18750000    0.06250000    0.37500000          8/256
          ...
  39:     0.43750000    0.43750000    0.37500000          4/256

Wave functions: Plane wave expansion
  Cutoff energy: 400.000 eV
  Number of coefficients (min, max): 540, 574
  Using FFTW library
  Eigensolver: None  MatrixOperator buffer_size: default value or 
                              see value of nblock in input file
Diagonalizer layout: Serial LAPACKOrthonormalizer layout: Serial LAPACK 

Davidson(niter=1, smin=None, normalize=True) 

Densities:
  Coarse grid: 12*12*24 grid
  Fine grid: 24*24*48 grid
  Total Charge: 0.000000 

Density mixing:
  Method: separate
  Backend: pulay
  Linear mixing parameter: 0.05
  Mixing with 8 old densities
  Damping of long wave oscillations: 100 

Hamiltonian:
  XC and Coulomb potentials evaluated on a 24*24*48 grid
  Using the PBE Exchange-Correlation functional
 

Memory estimate:
  Process memory now: 923.66 MiB
  Calculator: 12.12 MiB
    Density: 1.65 MiB
      Arrays: 0.69 MiB
      Localized functions: 0.54 MiB
      Mixer: 0.42 MiB
    Hamiltonian: 0.46 MiB
      Arrays: 0.45 MiB
      XC: 0.00 MiB
      Poisson: 0.00 MiB
      vbar: 0.01 MiB
    Wavefunctions: 10.02 MiB
      Arrays psit_nG: 6.31 MiB
      Eigensolver: 0.25 MiB
      Projections: 0.40 MiB
      Projectors: 2.52 MiB
      Overlap op: 0.16 MiB
      PW-descriptor: 0.38 MiB

Total number of cores used: 1

Number of atoms: 2
Number of atomic orbitals: 18
Number of bands in calculation: 18
Bands to converge: occupied states only
Number of valence electrons: 24

... initialized

Initializing position-dependent things.

Density initialized from atomic densities
Creating initial wave functions:
  18 bands from LCAO basis set

                 
                 
                 
                 
        Zn       
                 
                 
       Zn        
                 
                 
                 
                 

Positions:
   0 Zn     0.000000    0.000000    0.000000
   1 Zn     0.000000    1.535752    2.468480

Unit cell:
           periodic     x           y           z      points  spacing
  1. axis:    yes    2.660000    0.000000    0.000000    12     0.1920
  2. axis:    yes   -1.330000    2.303628    0.000000    12     0.1920
  3. axis:    yes    0.000000    0.000000    4.936960    24     0.2057

  Lengths:   2.660000   2.660000   4.936960
  Angles:   90.000000  90.000000 120.000000

Effective grid spacing dv^(1/3) = 0.2061

                     log10-error:    total        iterations:
           time      wfs    density  energy       fermi  poisson
iter:   1  22:08:11  +2.75   +inf    -2.264963    1             
iter:   2  22:08:13  +0.00   +inf    -2.396460    6             
iter:   3  22:08:14  +0.59   +inf    -2.436575    3             
iter:   4  22:08:16  -0.24  -1.45    -2.414334    5             
iter:   5  22:08:17  +1.52  -1.48    -2.456777    21            
iter:   6  22:08:19  -0.85  -1.86    -2.491195    2             
iter:   7  22:08:21  +0.79  -1.87    -2.293563    4             
iter:   8  22:08:22  -0.15  -1.99    -2.303916    3             
iter:   9  22:08:24  -0.82  -2.62    -2.300351    3             
iter:  10  22:08:26  -1.35  -2.89    -2.302746    3             
iter:  11  22:08:28  -1.12  -2.71    -2.301803    2             
iter:  12  22:08:29  -2.03  -2.84    -2.302499    2             
iter:  13  22:08:31  -0.48  -2.76    -2.300323    3             
iter:  14  22:08:33  -1.31  -3.61    -2.300854    3             
iter:  15  22:08:35  -1.94  -3.16    -2.300581    2             
iter:  16  22:08:36  -2.38  -3.50    -2.300740    2             
iter:  17  22:08:38  -2.36  -3.30    -2.300795    2             
iter:  18  22:08:40  -3.07  -3.39    -2.300780    2             
iter:  19  22:08:42  -2.56  -3.47    -2.300815    2             
iter:  20  22:08:43  -2.47  -3.48    -2.300712    2             
iter:  21  22:08:45  -3.61  -3.86    -2.300711    2             
iter:  22  22:08:47  -3.41  -4.09    -2.300719    2             
iter:  23  22:08:48  -3.60  -4.08    -2.300715    2             
iter:  24  22:08:50  -3.61  -4.31    -2.300723    2             
iter:  25  22:08:52  -3.82  -4.08    -2.300718    2             
iter:  26  22:08:54  -4.57  -4.36    -2.300718    2             
iter:  27  22:08:55  -4.48  -4.70    -2.300719    1             
iter:  28  22:08:57  -4.73  -4.59    -2.300721    2             
iter:  29  22:08:59  -5.20  -4.37    -2.300721    1             
iter:  30  22:09:00  -4.57  -4.44    -2.300719    2             
iter:  31  22:09:02  -5.29  -4.57    -2.300719    1             
iter:  32  22:09:04  -4.64  -4.53    -2.300721    2             
iter:  33  22:09:06  -5.00  -4.42    -2.300722    2             
iter:  34  22:09:07  -6.09  -4.30    -2.300723    1             
iter:  35  22:09:09  -3.96  -4.31    -2.300719    2             
iter:  36  22:09:11  -4.72  -4.83    -2.300719    2             
iter:  37  22:09:12  -4.57  -5.27    -2.300719    2             
iter:  38  22:09:14  -4.74  -4.93    -2.300719    2             
iter:  39  22:09:16  -5.80  -5.24    -2.300719    1             
iter:  40  22:09:18  -6.36  -5.60    -2.300719    1             
iter:  41  22:09:19  -6.18  -5.41    -2.300719    1             
iter:  42  22:09:21  -6.16  -5.56    -2.300719    1             
iter:  43  22:09:23  -6.24  -5.45    -2.300719    1             
iter:  44  22:09:25  -7.28  -5.40    -2.300719    1             
iter:  45  22:09:26  -6.96  -5.48    -2.300719    1             
iter:  46  22:09:28  -7.36  -5.38    -2.300719    1             
iter:  47  22:09:30  -7.77  -5.46    -2.300719    1             

Converged after 47 iterations.

Dipole moment: (-1.920588, 1.108852, -0.000000) |e|*Ang

Energy contributions relative to reference atoms: (reference = -97722.653306)

Kinetic:         -1.806897
Potential:       +5.069883
External:        +0.000000
XC:              -5.533044
Entropy (-ST):   -0.000868
Local:           -0.030228
--------------------------
Free energy:     -2.301153
Extrapolated:    -2.300719

Fermi level: 6.57242

Warning: Showing only first 2 kpts
 Kpt  Band  Eigenvalues  Occupancy
  0    10     -0.34012    0.03125
  0    11      1.99254    0.03125
  0    12      5.22943    0.03125
  0    13     18.85166    0.00000

  1    10     -0.38899    0.03125
  1    11     -0.09491    0.03125
  1    12      9.18677    0.00000
  1    13     13.82117    0.00000


Input parameters:
  convergence: {bands: all}
  eigensolver: {name: cg,
                niter: 5}
  fixdensity: True
  kpts: {npoints: 50,
         path: GMKGA}
  nbands: -4
  symmetry: off

Initialize ...

Zn-setup:
  name: Zinc
  id: 9da902d12d12265ad8e0029a903fe3c0
  Z: 30
  valence: 12
  core: 18
  charge: 0.0
  file: /usr/share/gpaw-setups/Zn.PBE.gz
  cutoffs: 1.16(comp), 2.14(filt), 2.28(core), lmax=2
  valence states:
                energy  radius
    4s(2.00)    -5.977   1.286
    4p(0.00)    -1.117   1.270
    3d(10.00)   -10.142   1.180
    *s          21.234   1.286
    *p          26.095   1.270
    *d          17.070   1.180

  Using partial waves for Zn as LCAO basis

Reference energy: -97722.653306

Spin-paired calculation

Occupation numbers:
  Fixed Fermi level
  Fermi-Dirac: width=0.0200 eV

Convergence criteria:
  Maximum total energy change: 0.0005 eV / electron
  Maximum integral of absolute density change: 0.0001 electrons
  Maximum integral of absolute eigenstate change: 4e-08 eV^2
  Maximum number of iterations: 200

Symmetries present (total): 1

  ( 1  0  0)
  ( 0  1  0)
  ( 0  0  1)

50 k-points
50 k-points in the irreducible part of the Brillouin zone
       k-points in crystal coordinates                weights
   0:     0.00000000    0.00000000    0.00000000          1/50
   1:     0.03333333    0.00000000    0.00000000          1/50
   2:     0.06666667    0.00000000    0.00000000          1/50
   3:     0.10000000    0.00000000    0.00000000          1/50
   4:     0.13333333    0.00000000    0.00000000          1/50
   5:     0.16666667    0.00000000    0.00000000          1/50
   6:     0.20000000    0.00000000    0.00000000          1/50
   7:     0.23333333    0.00000000    0.00000000          1/50
   8:     0.26666667    0.00000000    0.00000000          1/50
   9:     0.30000000    0.00000000    0.00000000          1/50
          ...
  49:     0.00000000    0.00000000    0.50000000          1/50

Wave functions: Plane wave expansion
  Cutoff energy: 400.000 eV
  Number of coefficients (min, max): 534, 568
  Using FFTW library
  Eigensolver: None  MatrixOperator buffer_size: default value or 
                              see value of nblock in input file
Diagonalizer layout: Serial LAPACKOrthonormalizer layout: Serial LAPACK 

CG(niter=5, rtol=3.0e-01) 

No density mixing

Memory estimate:
  Process memory now: 983.75 MiB
  Calculator: 13.41 MiB
    Density: 1.65 MiB
      Arrays: 0.69 MiB
      Localized functions: 0.54 MiB
      Mixer: 0.42 MiB
    Hamiltonian: 0.46 MiB
      Arrays: 0.45 MiB
      XC: 0.00 MiB
      Poisson: 0.00 MiB
      vbar: 0.01 MiB
    Wavefunctions: 11.30 MiB
      Arrays psit_nG: 6.93 MiB
      Eigensolver: 0.18 MiB
      Projections: 0.44 MiB
      Projectors: 3.15 MiB
      Overlap op: 0.14 MiB
      PW-descriptor: 0.45 MiB

Total number of cores used: 1

Number of atoms: 2
Number of atomic orbitals: 18
Number of bands in calculation: 16
Bands to converge: all
Number of valence electrons: 24

... initialized

Initializing position-dependent things.

Creating initial wave functions:
  16 bands from LCAO basis set

                 
                 
                 
                 
        Zn       
                 
                 
       Zn        
                 
                 
                 
                 

Positions:
   0 Zn     0.000000    0.000000    0.000000
   1 Zn     0.000000    1.535752    2.468480

Unit cell:
           periodic     x           y           z      points  spacing
  1. axis:    yes    2.660000    0.000000    0.000000    12     0.1920
  2. axis:    yes   -1.330000    2.303628    0.000000    12     0.1920
  3. axis:    yes    0.000000    0.000000    4.936960    24     0.2057

  Lengths:   2.660000   2.660000   4.936960
  Angles:   90.000000  90.000000 120.000000

Effective grid spacing dv^(1/3) = 0.2061

                     log10-error:    total        iterations:
           time      wfs    density  energy       fermi  poisson
iter:   1  22:09:38  +2.42           -5.956177    31            
iter:   2  22:09:46  +1.94           -6.133651    32            
iter:   3  22:09:54  +0.89           -6.137846    29            
iter:   4  22:10:02  +0.47           -6.138531    32            
iter:   5  22:10:10  -0.02           -6.138606    31            
iter:   6  22:10:18  -0.40           -6.138629    32            
iter:   7  22:10:26  -0.76           -6.138634    32            
iter:   8  22:10:32  -1.05           -6.138635    28            
iter:   9  22:10:38  -1.28           -6.138636    28            
iter:  10  22:10:43  -1.49           -6.138636    28            
iter:  11  22:10:48  -1.67           -6.138636    28            
iter:  12  22:10:52  -1.83           -6.138636    28            
iter:  13  22:10:54  -1.97           -6.138636    28            
iter:  14  22:10:56  -2.08           -6.138636    28            
iter:  15  22:10:58  -2.19           -6.138636    28            
iter:  16  22:10:59  -2.31           -6.138636    28            
iter:  17  22:11:00  -2.38           -6.138636    28            
iter:  18  22:11:01  -2.46           -6.138636    28            
iter:  19  22:11:03  -2.53           -6.138636    28            
iter:  20  22:11:03  -2.60           -6.138636    28            
iter:  21  22:11:04  -2.65           -6.138636    28            
iter:  22  22:11:05  -2.72           -6.138636    28            
iter:  23  22:11:06  -2.77           -6.138636    28            
iter:  24  22:11:07  -2.92           -6.138636    28            
iter:  25  22:11:08  -3.06           -6.138636    28            
iter:  26  22:11:09  -0.93           -6.138636    28            
iter:  27  22:11:10  -2.52           -6.138636    28            
iter:  28  22:11:10  -3.07           -6.138636    28            
iter:  29  22:11:11  -3.55           -6.138636    28            
iter:  30  22:11:12  -4.10           -6.138636    28            
iter:  31  22:11:13  -2.99           -6.138636    28            
iter:  32  22:11:14  -3.38           -6.138636    28            
iter:  33  22:11:15  -3.71           -6.138636    28            
iter:  34  22:11:15  -4.36           -6.138636    28            
iter:  35  22:11:16  -4.53           -6.138636    28            
iter:  36  22:11:17  -4.62           -6.138636    28            
iter:  37  22:11:18  -5.06           -6.138636    28            
iter:  38  22:11:18  -5.38           -6.138636    28            
iter:  39  22:11:19  -5.69           -6.138636    28            
iter:  40  22:11:20  -6.00           -6.138636    28            
iter:  41  22:11:21  -6.14           -6.138636    28            
iter:  42  22:11:21  -6.32           -6.138636    28            
iter:  43  22:11:22  -6.48           -6.138636    28            
iter:  44  22:11:23  -6.99           -6.138636    28            
iter:  45  22:11:23  -6.60           -6.138636    28            
iter:  46  22:11:24  -7.46           -6.138636    28            

Converged after 46 iterations.

Dipole moment: (-1.920588, 1.108852, -0.000000) |e|*Ang

Energy contributions relative to reference atoms: (reference = -97722.653306)

Kinetic:         -5.644690
Potential:       +5.069884
External:        +0.000000
XC:              -5.533042
Entropy (-ST):   -0.001118
Local:           -0.030228
--------------------------
Free energy:     -6.139195
Extrapolated:    -6.138636

Fixed Fermi level: 6.57242

Warning: Showing only first 2 kpts
 Kpt  Band  Eigenvalues  Occupancy
  0    10     -0.33553    0.04000
  0    11      3.06015    0.04000
  0    12      3.70372    0.04000
  0    13     20.34235    0.00000

  1    10     -0.33501    0.04000
  1    11      3.11418    0.04000
  1    12      3.72071    0.04000
  1    13     20.37869    0.00000


Timing:                              incl.     excl.
-----------------------------------------------------------
Hamiltonian:                         0.770     0.002   0.0% |
 Atomic:                             0.630     0.004   0.0% |
  XC Correction:                     0.626     0.626   0.3% |
 Calculate atomic Hamiltonians:      0.023     0.023   0.0% |
 Communicate:                        0.000     0.000   0.0% |
 Initialize Hamiltonian:             0.000     0.000   0.0% |
 Poisson:                            0.000     0.000   0.0% |
 XC 3D grid:                         0.115     0.115   0.1% |
LCAO initialization:                 4.100     0.293   0.1% |
 LCAO eigensolver:                   1.122     0.009   0.0% |
  Calculate projections:             0.006     0.006   0.0% |
  DenseAtomicCorrection:             0.023     0.023   0.0% |
  Distribute overlap matrix:         0.004     0.004   0.0% |
  Orbital Layouts:                   0.084     0.084   0.0% |
  Potential matrix:                  0.395     0.395   0.2% |
  Sum over cells:                    0.603     0.603   0.3% |
 LCAO to grid:                       1.457     1.457   0.7% |
 Set positions (LCAO WFS):           1.228     0.002   0.0% |
  Basic WFS set positions:           0.003     0.003   0.0% |
  Basis functions set positions:     0.000     0.000   0.0% |
  TCI: Calculate S, T, P:            1.223     1.223   0.6% |
PWDescriptor:                        0.031     0.031   0.0% |
Redistribute:                        0.000     0.000   0.0% |
SCF-cycle:                         190.719    11.599   5.9% |-|
 CG:                                82.345    75.262  38.0% |--------------|
  CG: orthonormalize:                7.083     3.830   1.9% ||
   CG: overlap:                      1.923     1.923   1.0% |
   CG: overlap2:                     1.330     1.330   0.7% |
 Davidson:                          39.012    19.487   9.8% |---|
  calc. matrices:                   12.719    12.719   6.4% |--|
  diagonalize:                       5.872     5.872   3.0% ||
  rotate_psi:                        0.935     0.935   0.5% |
 Density:                            8.601     0.002   0.0% |
  Atomic density matrices:           0.095     0.095   0.0% |
  Mix:                               0.616     0.616   0.3% |
  Multipole moments:                 0.006     0.006   0.0% |
  Pseudo density:                    7.882     7.751   3.9% |-|
   Symmetrize density:               0.131     0.131   0.1% |
 Hamiltonian:                       16.893     0.035   0.0% |
  Atomic:                           14.521     0.083   0.0% |
   XC Correction:                   14.438    14.438   7.3% |--|
  Calculate atomic Hamiltonians:     0.454     0.454   0.2% |
  Communicate:                       0.001     0.001   0.0% |
  Poisson:                           0.017     0.017   0.0% |
  XC 3D grid:                        1.867     1.867   0.9% |
 Orthonormalize:                     0.196     0.008   0.0% |
  Band Layouts:                      0.008     0.002   0.0% |
   Inverse Cholesky:                 0.006     0.006   0.0% |
  calc_s_matrix:                     0.025     0.025   0.0% |
  projections:                       0.136     0.136   0.1% |
  rotate_psi:                        0.019     0.019   0.0% |
 Residuals:                          4.358     4.358   2.2% ||
 Subspace diag:                     27.714     0.571   0.3% |
  Band Layouts:                      2.692     0.164   0.1% |
   Diagonalize:                      2.409     2.409   1.2% |
   Distribute results:               0.119     0.119   0.1% |
  calc_h_matrix:                    22.945    22.945  11.6% |----|
  rotate_psi:                        1.505     1.505   0.8% |
Set symmetry:                        0.025     0.025   0.0% |
Other:                               2.325     2.325   1.2% |
-----------------------------------------------------------
Total:                                       197.970 100.0%

Date: Tue Feb  2 22:11:25 2021
element =  Zn
struct =  hcp
kpts =  (8,8,4)
element =  Zn
configuration =  [Ar] 3d10 4s2 4p0
valence =  ['3d', '4s', '4p']
occupations =  {'3d': 10, '4s': 2, '4p': 0}
nls =  4s
rNum =  600
lmax =  d
*******************************************
Starting confinement parameter optimization
Adjustable parameters and initial values:
  Zn_3d.r0 : 4.610932
  Zn_4p.r0 : 4.610932
  Zn_4s.r0 : 4.610932
  Zn_n.r0 : 6.916398
*******************************************

OPT_VAL: 4.610931747042105   4.610931747042105   4.610931747042105   6.916397620563158
VCONF:
  Zn_3d : PowerConfinement(r0=4.610932, s=2.000000)
  Zn_4p : PowerConfinement(r0=4.610932, s=2.000000)
  Zn_4s : PowerConfinement(r0=4.610932, s=2.000000)
  Zn_n : PowerConfinement(r0=6.916398, s=2.000000)
RESIDUAL: 0.0

OPT_VAL: 4.810931747042106   4.610931747042105   4.610931747042105   6.916397620563158
VCONF:
  Zn_3d : PowerConfinement(r0=4.810932, s=2.000000)
  Zn_4p : PowerConfinement(r0=4.610932, s=2.000000)
  Zn_4s : PowerConfinement(r0=4.610932, s=2.000000)
  Zn_n : PowerConfinement(r0=6.916398, s=2.000000)
RESIDUAL: 0.0

OPT_VAL: 4.610931747042105   4.810931747042106   4.610931747042105   6.916397620563158
VCONF:
  Zn_3d : PowerConfinement(r0=4.610932, s=2.000000)
  Zn_4p : PowerConfinement(r0=4.810932, s=2.000000)
  Zn_4s : PowerConfinement(r0=4.610932, s=2.000000)
  Zn_n : PowerConfinement(r0=6.916398, s=2.000000)
RESIDUAL: 0.0

OPT_VAL: 4.610931747042105   4.610931747042105   4.810931747042106   6.916397620563158
VCONF:
  Zn_3d : PowerConfinement(r0=4.610932, s=2.000000)
  Zn_4p : PowerConfinement(r0=4.610932, s=2.000000)
  Zn_4s : PowerConfinement(r0=4.810932, s=2.000000)
  Zn_n : PowerConfinement(r0=6.916398, s=2.000000)
RESIDUAL: 0.0

OPT_VAL: 4.610931747042105   4.610931747042105   4.610931747042105   7.116397620563158
VCONF:
  Zn_3d : PowerConfinement(r0=4.610932, s=2.000000)
  Zn_4p : PowerConfinement(r0=4.610932, s=2.000000)
  Zn_4s : PowerConfinement(r0=4.610932, s=2.000000)
  Zn_n : PowerConfinement(r0=7.116398, s=2.000000)
RESIDUAL: 0.0

OPT_VAL: 4.635931747042106   4.610931747042105   4.610931747042105   6.916397620563158
VCONF:
  Zn_3d : PowerConfinement(r0=4.635932, s=2.000000)
  Zn_4p : PowerConfinement(r0=4.610932, s=2.000000)
  Zn_4s : PowerConfinement(r0=4.610932, s=2.000000)
  Zn_n : PowerConfinement(r0=6.916398, s=2.000000)
RESIDUAL: 0.0

OPT_VAL: 4.610931747042105   4.635931747042106   4.610931747042105   6.916397620563158
VCONF:
  Zn_3d : PowerConfinement(r0=4.610932, s=2.000000)
  Zn_4p : PowerConfinement(r0=4.635932, s=2.000000)
  Zn_4s : PowerConfinement(r0=4.610932, s=2.000000)
  Zn_n : PowerConfinement(r0=6.916398, s=2.000000)
RESIDUAL: 0.0

OPT_VAL: 4.610931747042105   4.610931747042105   4.635931747042106   6.916397620563158
VCONF:
  Zn_3d : PowerConfinement(r0=4.610932, s=2.000000)
  Zn_4p : PowerConfinement(r0=4.610932, s=2.000000)
  Zn_4s : PowerConfinement(r0=4.635932, s=2.000000)
  Zn_n : PowerConfinement(r0=6.916398, s=2.000000)
RESIDUAL: 0.0

OPT_VAL: 4.610931747042105   4.610931747042105   4.610931747042105   6.9413976205631585
VCONF:
  Zn_3d : PowerConfinement(r0=4.610932, s=2.000000)
  Zn_4p : PowerConfinement(r0=4.610932, s=2.000000)
  Zn_4s : PowerConfinement(r0=4.610932, s=2.000000)
  Zn_n : PowerConfinement(r0=6.941398, s=2.000000)
RESIDUAL: 0.0

OPT_VAL: 4.615931747042105   4.610931747042105   4.610931747042105   6.916397620563158
VCONF:
  Zn_3d : PowerConfinement(r0=4.615932, s=2.000000)
  Zn_4p : PowerConfinement(r0=4.610932, s=2.000000)
  Zn_4s : PowerConfinement(r0=4.610932, s=2.000000)
  Zn_n : PowerConfinement(r0=6.916398, s=2.000000)
RESIDUAL: 0.0

OPT_VAL: 4.610931747042105   4.615931747042105   4.610931747042105   6.916397620563158
VCONF:
  Zn_3d : PowerConfinement(r0=4.610932, s=2.000000)
  Zn_4p : PowerConfinement(r0=4.615932, s=2.000000)
  Zn_4s : PowerConfinement(r0=4.610932, s=2.000000)
  Zn_n : PowerConfinement(r0=6.916398, s=2.000000)
RESIDUAL: 0.0

OPT_VAL: 4.610931747042105   4.610931747042105   4.615931747042105   6.916397620563158
VCONF:
  Zn_3d : PowerConfinement(r0=4.610932, s=2.000000)
  Zn_4p : PowerConfinement(r0=4.610932, s=2.000000)
  Zn_4s : PowerConfinement(r0=4.615932, s=2.000000)
  Zn_n : PowerConfinement(r0=6.916398, s=2.000000)
RESIDUAL: 0.0

OPT_VAL: 4.610931747042105   4.610931747042105   4.610931747042105   6.921397620563158
VCONF:
  Zn_3d : PowerConfinement(r0=4.610932, s=2.000000)
  Zn_4p : PowerConfinement(r0=4.610932, s=2.000000)
  Zn_4s : PowerConfinement(r0=4.610932, s=2.000000)
  Zn_n : PowerConfinement(r0=6.921398, s=2.000000)
RESIDUAL: 0.0

*******************************************
Optimization finished after 13 iterations
Adjustable parameters and final values:
  Zn_3d.r0 : 4.610932
  Zn_4p.r0 : 4.610932
  Zn_4s.r0 : 4.610932
  Zn_n.r0 : 6.916398
*******************************************

VCONF:
  Zn_3d : PowerConfinement(r0=4.610932, s=2.000000)
  Zn_4p : PowerConfinement(r0=4.610932, s=2.000000)
  Zn_4s : PowerConfinement(r0=4.610932, s=2.000000)
  Zn_n : PowerConfinement(r0=6.916398, s=2.000000)
