element =  Ti
struct =  hcp
nbands =  -4
path =  GMKGA
kpts =  (8,8,4)
lattice constant a =  2.951
lattice constant b =  2.951
lattice constant c =  4.686
alpha angle =  90.0

  ___ ___ ___ _ _ _  
 |   |   |_  | | | | 
 | | | | | . | | | | 
 |__ |  _|___|_____|  1.3.1b1
 |___|_|             

User:   inukai@DESKTOP-12SE80T
Date:   Thu Feb 11 16:31:05 2021
Arch:   x86_64
Pid:    11501
Python: 3.6.9
gpaw:   /usr/lib/python3/dist-packages/gpaw
_gpaw:  /usr/lib/python3/dist-packages/_gpaw.cpython-36m-x86_64-linux-gnu.so
ase:    /home/inukai/hotcent/ase-3.19.3/ase (version 3.19.3)
numpy:  /home/inukai/.local/lib/python3.6/site-packages/numpy (version 1.19.5)
scipy:  /home/inukai/.local/lib/python3.6/site-packages/scipy (version 1.5.4)
units:  Angstrom and eV
cores:  1

Input parameters:
  kpts: [8 8 4]
  maxiter: 1500
  mixer: {backend: pulay,
          beta: 0.01,
          method: separate,
          nmaxold: 11,
          weight: 100.0}
  mode: {ecut: 400.0,
         name: pw}
  occupations: {name: fermi-dirac,
                width: 0.02}
  spinpol: True
  xc: PBE

System changes: positions, numbers, cell, pbc, initial_charges, initial_magmoms 

Initialize ...

Ti-setup:
  name: Titanium
  id: d282db07e62ae71292040bf25b25ccdd
  Z: 22
  valence: 12
  core: 10
  charge: 0.0
  file: /usr/share/gpaw-setups/Ti.PBE.gz
  cutoffs: 1.22(comp), 2.23(filt), 1.02(core), lmax=2
  valence states:
                energy  radius
    3s(2.00)   -62.623   1.270
    4s(2.00)    -4.466   1.270
    3p(6.00)   -38.862   1.058
    4p(0.00)    -1.466   1.058
    3d(2.00)    -4.258   1.058
    *d          22.953   1.058

  Using partial waves for Ti as LCAO basis

Reference energy: -46448.028563

Spin-polarized calculation.
Magnetic moment:  0.000000

Occupation numbers:
  Fermi-Dirac: width=0.0200 eV

Convergence criteria:
  Maximum total energy change: 0.0005 eV / electron
  Maximum integral of absolute density change: 0.0001 electrons
  Maximum integral of absolute eigenstate change: 4e-08 eV^2
  Maximum number of iterations: 1500

Symmetries present (total): 12

  ( 1  1  0)  ( 1  1  0)  ( 1  0  0)  ( 1  0  0)  ( 0  1  0)  ( 0  1  0)
  ( 0 -1  0)  ( 0 -1  0)  ( 0  1  0)  ( 0  1  0)  (-1 -1  0)  (-1 -1  0)
  ( 0  0  1)  ( 0  0 -1)  ( 0  0  1)  ( 0  0 -1)  ( 0  0  1)  ( 0  0 -1)

  ( 0 -1  0)  ( 0 -1  0)  (-1  0  0)  (-1  0  0)  (-1 -1  0)  (-1 -1  0)
  (-1  0  0)  (-1  0  0)  ( 1  1  0)  ( 1  1  0)  ( 1  0  0)  ( 1  0  0)
  ( 0  0  1)  ( 0  0 -1)  ( 0  0  1)  ( 0  0 -1)  ( 0  0  1)  ( 0  0 -1)
Note: your k-points are not as symmetric as your crystal!

256 k-points: 8 x 8 x 4 Monkhorst-Pack grid
40 k-points in the irreducible part of the Brillouin zone
       k-points in crystal coordinates                weights
   0:     0.06250000   -0.06250000    0.12500000          4/256
   1:     0.06250000   -0.06250000    0.37500000          4/256
   2:     0.06250000    0.06250000    0.12500000          4/256
   3:     0.06250000    0.06250000    0.37500000          4/256
   4:     0.18750000   -0.18750000    0.12500000          4/256
   5:     0.18750000   -0.18750000    0.37500000          4/256
   6:     0.18750000   -0.06250000    0.12500000          8/256
   7:     0.18750000   -0.06250000    0.37500000          8/256
   8:     0.18750000    0.06250000    0.12500000          8/256
   9:     0.18750000    0.06250000    0.37500000          8/256
          ...
  39:     0.43750000    0.43750000    0.37500000          4/256

Wave functions: Plane wave expansion
  Cutoff energy: 400.000 eV
  Number of coefficients (min, max): 633, 650
  Using FFTW library
  Eigensolver: None  MatrixOperator buffer_size: default value or 
                              see value of nblock in input file
Diagonalizer layout: Serial LAPACKOrthonormalizer layout: Serial LAPACK 

Davidson(niter=1, smin=None, normalize=True) 

Densities:
  Coarse grid: 12*12*24 grid
  Fine grid: 24*24*48 grid
  Total Charge: 0.000000 

Density mixing:
  Method: separate
  Backend: pulay
  Linear mixing parameter: 0.01
  Mixing with 11 old densities
  Damping of long wave oscillations: 100 

Hamiltonian:
  XC and Coulomb potentials evaluated on a 24*24*48 grid
  Using the PBE Exchange-Correlation functional
 

Memory estimate:
  Process memory now: 928.29 MiB
  Calculator: 29.06 MiB
    Density: 2.55 MiB
      Arrays: 0.92 MiB
      Localized functions: 0.46 MiB
      Mixer: 1.16 MiB
    Hamiltonian: 0.69 MiB
      Arrays: 0.69 MiB
      XC: 0.00 MiB
      Poisson: 0.00 MiB
      vbar: 0.01 MiB
    Wavefunctions: 25.82 MiB
      Arrays psit_nG: 20.63 MiB
      Eigensolver: 0.41 MiB
      Projections: 1.14 MiB
      Projectors: 2.94 MiB
      Overlap op: 0.27 MiB
      PW-descriptor: 0.43 MiB

Total number of cores used: 1

Number of atoms: 2
Number of atomic orbitals: 26
Number of bands in calculation: 26
Bands to converge: occupied states only
Number of valence electrons: 24

... initialized

Initializing position-dependent things.

Density initialized from atomic densities
Creating initial wave functions:
  26 bands from LCAO basis set

                  
                  
                  
                  
         Ti       
                  
                  
                  
       Ti         
                  
                  
                  
                  

Positions:
   0 Ti     0.000000    0.000000    0.000000
   1 Ti     0.000000    1.703761    2.343000

Unit cell:
           periodic     x           y           z      points  spacing
  1. axis:    yes    2.951000    0.000000    0.000000    12     0.2130
  2. axis:    yes   -1.475500    2.555641    0.000000    12     0.2130
  3. axis:    yes    0.000000    0.000000    4.686000    24     0.1953

  Lengths:   2.951000   2.951000   4.686000
  Angles:   90.000000  90.000000 120.000000

Effective grid spacing dv^(1/3) = 0.2171

                     log10-error:    total        iterations:
           time      wfs    density  energy       fermi  poisson  magmom
iter:   1  16:31:15  +2.01   +inf   -13.585115    2               -0.0000
iter:   2  16:31:18  -0.32   +inf   -13.635085    3               -0.0000
iter:   3  16:31:21  -1.54   +inf   -13.639815    3               -0.0000
iter:   4  16:31:26  -2.02  -1.33   -13.615213    3               -0.0000
iter:   5  16:31:30  +0.13  -1.33   -13.198760    30              +0.0000
iter:   6  16:31:34  -0.95  -1.91   -13.137083    4               -0.0000
iter:   7  16:31:38  -2.32  -1.92   -13.138903    3               -0.0000
iter:   8  16:31:43  -1.50  -2.06   -13.133167    5               -0.0000
iter:   9  16:31:47  -2.73  -2.74   -13.133042    3               -0.0000
iter:  10  16:31:51  -3.52  -2.78   -13.133111    2               -0.0000
iter:  11  16:31:56  -3.00  -2.76   -13.134408    3               -0.0000
iter:  12  16:32:00  -2.77  -2.86   -13.133079    3               -0.0000
iter:  13  16:32:04  -4.21  -3.59   -13.133126    2               +0.0000
iter:  14  16:32:08  -4.24  -3.50   -13.133073    2               +0.0000
iter:  15  16:32:12  -5.17  -4.09   -13.133079    2               +0.0000
iter:  16  16:32:17  -6.27  -3.99   -13.133078    2               -0.0000
iter:  17  16:32:21  -5.20  -4.00   -13.133071    2               -0.0000
iter:  18  16:32:25  -6.28  -4.58   -13.133071    2               -0.0000
iter:  19  16:32:29  -7.07  -5.28   -13.133071    2               -0.0000
iter:  20  16:32:33  -8.12  -5.44   -13.133071    2               -0.0000

Converged after 20 iterations.

Dipole moment: (-2.345190, 1.353996, -0.000000) |e|*Ang

Total magnetic moment: -0.000000
Local magnetic moments:
   0 Ti -0.000000
   1 Ti -0.000000

Energy contributions relative to reference atoms: (reference = -46448.028563)

Kinetic:         +8.186590
Potential:       -8.702833
External:        +0.000000
XC:             -12.910005
Entropy (-ST):   -0.003092
Local:           +0.294723
--------------------------
Free energy:    -13.134617
Extrapolated:   -13.133071

Spin contamination: 0.000000 electrons
Fermi level: 8.36657

Warning: Showing only first 2 kpts
                      Up                     Down
 Kpt  Band  Eigenvalues  Occupancy  Eigenvalues  Occupancy
  0    10      8.63043    0.00000      8.63043    0.00000
  0    11      8.89094    0.00000      8.89094    0.00000
  0    12      9.13889    0.00000      9.13889    0.00000
  0    13      9.24900    0.00000      9.24900    0.00000

  1    10      8.20194    0.01562      8.20194    0.01562
  1    11      8.64766    0.00000      8.64766    0.00000
  1    12      8.91035    0.00000      8.91035    0.00000
  1    13      9.02750    0.00000      9.02750    0.00000


Input parameters:
  convergence: {bands: all}
  eigensolver: {name: cg,
                niter: 5}
  fixdensity: True
  kpts: {npoints: 50,
         path: GMKGA}
  nbands: -4
  symmetry: off

Initialize ...

Ti-setup:
  name: Titanium
  id: d282db07e62ae71292040bf25b25ccdd
  Z: 22
  valence: 12
  core: 10
  charge: 0.0
  file: /usr/share/gpaw-setups/Ti.PBE.gz
  cutoffs: 1.22(comp), 2.23(filt), 1.02(core), lmax=2
  valence states:
                energy  radius
    3s(2.00)   -62.623   1.270
    4s(2.00)    -4.466   1.270
    3p(6.00)   -38.862   1.058
    4p(0.00)    -1.466   1.058
    3d(2.00)    -4.258   1.058
    *d          22.953   1.058

  Using partial waves for Ti as LCAO basis

Reference energy: -46448.028563

Spin-polarized calculation.
Magnetic moment:  0.000000

Occupation numbers:
  Fixed Fermi level
  Fermi-Dirac: width=0.0200 eV

Convergence criteria:
  Maximum total energy change: 0.0005 eV / electron
  Maximum integral of absolute density change: 0.0001 electrons
  Maximum integral of absolute eigenstate change: 4e-08 eV^2
  Maximum number of iterations: 1500

Symmetries present (total): 1

  ( 1  0  0)
  ( 0  1  0)
  ( 0  0  1)

50 k-points
50 k-points in the irreducible part of the Brillouin zone
       k-points in crystal coordinates                weights
   0:     0.00000000    0.00000000    0.00000000          1/50
   1:     0.03571429    0.00000000    0.00000000          1/50
   2:     0.07142857    0.00000000    0.00000000          1/50
   3:     0.10714286    0.00000000    0.00000000          1/50
   4:     0.14285714    0.00000000    0.00000000          1/50
   5:     0.17857143    0.00000000    0.00000000          1/50
   6:     0.21428571    0.00000000    0.00000000          1/50
   7:     0.25000000    0.00000000    0.00000000          1/50
   8:     0.28571429    0.00000000    0.00000000          1/50
   9:     0.32142857    0.00000000    0.00000000          1/50
          ...
  49:     0.00000000    0.00000000    0.50000000          1/50

Wave functions: Plane wave expansion
  Cutoff energy: 400.000 eV
  Number of coefficients (min, max): 623, 659
  Using FFTW library
  Eigensolver: None  MatrixOperator buffer_size: default value or 
                              see value of nblock in input file
Diagonalizer layout: Serial LAPACKOrthonormalizer layout: Serial LAPACK 

CG(niter=5, rtol=3.0e-01) 

No density mixing

Memory estimate:
  Process memory now: 1038.95 MiB
  Calculator: 24.76 MiB
    Density: 2.55 MiB
      Arrays: 0.92 MiB
      Localized functions: 0.46 MiB
      Mixer: 1.16 MiB
    Hamiltonian: 0.69 MiB
      Arrays: 0.69 MiB
      XC: 0.00 MiB
      Poisson: 0.00 MiB
      vbar: 0.01 MiB
    Wavefunctions: 21.52 MiB
      Arrays psit_nG: 16.09 MiB
      Eigensolver: 0.21 MiB
      Projections: 0.88 MiB
      Projectors: 3.68 MiB
      Overlap op: 0.16 MiB
      PW-descriptor: 0.50 MiB

Total number of cores used: 1

Number of atoms: 2
Number of atomic orbitals: 26
Number of bands in calculation: 16
Bands to converge: all
Number of valence electrons: 24

... initialized

Initializing position-dependent things.

Creating initial wave functions:
  16 bands from LCAO basis set

                  
                  
                  
                  
         Ti       
                  
                  
                  
       Ti         
                  
                  
                  
                  

Positions:
   0 Ti     0.000000    0.000000    0.000000
   1 Ti     0.000000    1.703761    2.343000

Unit cell:
           periodic     x           y           z      points  spacing
  1. axis:    yes    2.951000    0.000000    0.000000    12     0.2130
  2. axis:    yes   -1.475500    2.555641    0.000000    12     0.2130
  3. axis:    yes    0.000000    0.000000    4.686000    24     0.1953

  Lengths:   2.951000   2.951000   4.686000
  Angles:   90.000000  90.000000 120.000000

Effective grid spacing dv^(1/3) = 0.2171

                     log10-error:    total        iterations:
           time      wfs    density  energy       fermi  poisson  magmom
iter:   1  16:32:53  +0.18          -13.851808    32              +0.0000
iter:   2  16:33:06  -0.98          -13.865686    32              +0.0000
iter:   3  16:33:23  -1.98          -13.868092    33              +0.0000
iter:   4  16:33:39  -3.16          -13.868303    30              +0.0000
iter:   5  16:33:55  -4.30          -13.868316    33              +0.0000
iter:   6  16:34:11  -5.41          -13.868317    33              +0.0000
iter:   7  16:34:26  -6.48          -13.868317    33              +0.0000
iter:   8  16:34:33  -6.28          -13.868317    33              +0.0000
iter:   9  16:34:38  -7.29          -13.868317    32              +0.0000
iter:  10  16:34:40  -6.93          -13.868317    32              +0.0000
iter:  11  16:34:42  -7.26          -13.868317    32              +0.0000
iter:  12  16:34:43  -6.47          -13.868317    32              +0.0000
iter:  13  16:34:45  -7.24          -13.868317    32              +0.0000
iter:  14  16:34:47  -7.13          -13.868317    32              +0.0000
iter:  15  16:34:48  -7.05          -13.868317    32              +0.0000
iter:  16  16:34:50  -6.54          -13.868317    32              +0.0000
iter:  17  16:34:51  -6.90          -13.868317    32              +0.0000
iter:  18  16:34:52  -7.04          -13.868317    32              +0.0000
iter:  19  16:34:54  -7.03          -13.868317    32              +0.0000
iter:  20  16:34:55  -6.51          -13.868317    32              +0.0000
iter:  21  16:34:57  -6.10          -13.868317    32              +0.0000
iter:  22  16:34:58  -6.66          -13.868317    32              +0.0000
iter:  23  16:35:00  -6.52          -13.868317    32              +0.0000
iter:  24  16:35:01  -6.50          -13.868317    32              +0.0000
iter:  25  16:35:02  -6.42          -13.868317    32              +0.0000
iter:  26  16:35:04  -5.58          -13.868317    32              +0.0000
iter:  27  16:35:05  -6.69          -13.868317    32              +0.0000
iter:  28  16:35:06  -6.38          -13.868317    32              +0.0000
iter:  29  16:35:08  -6.04          -13.868317    32              +0.0000
iter:  30  16:35:09  -6.36          -13.868317    32              +0.0000
iter:  31  16:35:11  -6.11          -13.868317    32              +0.0000
iter:  32  16:35:12  -6.73          -13.868317    32              +0.0000
iter:  33  16:35:14  -5.98          -13.868317    32              +0.0000
iter:  34  16:35:15  -5.93          -13.868317    32              +0.0000
iter:  35  16:35:16  -5.87          -13.868317    32              +0.0000
iter:  36  16:35:18  -5.88          -13.868317    32              +0.0000
iter:  37  16:35:19  -6.68          -13.868317    32              +0.0000
iter:  38  16:35:21  -4.94          -13.868317    32              +0.0000
iter:  39  16:35:22  -3.30          -13.868317    32              +0.0000
iter:  40  16:35:23  -5.58          -13.868317    32              +0.0000
iter:  41  16:35:25  -5.61          -13.868317    32              +0.0000
iter:  42  16:35:26  -6.40          -13.868317    32              +0.0000
iter:  43  16:35:28  -5.67          -13.868317    32              +0.0000
iter:  44  16:35:29  -5.91          -13.868317    32              +0.0000
iter:  45  16:35:30  -5.85          -13.868317    32              +0.0000
iter:  46  16:35:32  -6.65          -13.868317    32              +0.0000
iter:  47  16:35:33  -6.88          -13.868317    32              +0.0000
iter:  48  16:35:35  -5.90          -13.868317    32              +0.0000
iter:  49  16:35:36  -5.69          -13.868317    32              +0.0000
iter:  50  16:35:37  -6.56          -13.868317    32              +0.0000
iter:  51  16:35:39  -6.76          -13.868317    32              +0.0000
iter:  52  16:35:40  -6.47          -13.868317    32              +0.0000
iter:  53  16:35:42  -7.31          -13.868317    32              +0.0000
iter:  54  16:35:43  -6.76          -13.868317    32              +0.0000
iter:  55  16:35:45  -7.18          -13.868317    32              +0.0000
iter:  56  16:35:46  -6.69          -13.868317    32              +0.0000
iter:  57  16:35:47  -6.99          -13.868317    32              +0.0000
iter:  58  16:35:49  -6.51          -13.868317    32              +0.0000
iter:  59  16:35:50  -7.13          -13.868317    32              +0.0000
iter:  60  16:35:51  -6.78          -13.868317    32              +0.0000
iter:  61  16:35:53  -7.09          -13.868317    32              +0.0000
iter:  62  16:35:54  -6.29          -13.868317    32              +0.0000
iter:  63  16:35:56  -7.03          -13.868317    32              +0.0000
iter:  64  16:35:57  -6.17          -13.868317    32              +0.0000
iter:  65  16:35:59  -6.91          -13.868317    32              +0.0000
iter:  66  16:36:00  -6.60          -13.868317    32              +0.0000
iter:  67  16:36:01  -7.01          -13.868317    32              +0.0000
iter:  68  16:36:03  -6.48          -13.868317    32              +0.0000
iter:  69  16:36:04  -7.03          -13.868317    32              +0.0000
iter:  70  16:36:06  -6.55          -13.868317    32              +0.0000
iter:  71  16:36:07  -7.19          -13.868317    32              +0.0000
iter:  72  16:36:08  -6.57          -13.868317    32              +0.0000
iter:  73  16:36:10  -7.17          -13.868317    32              +0.0000
iter:  74  16:36:11  -6.58          -13.868317    32              +0.0000
iter:  75  16:36:13  -7.06          -13.868317    32              +0.0000
iter:  76  16:36:14  -6.56          -13.868317    32              +0.0000
iter:  77  16:36:15  -7.18          -13.868317    32              +0.0000
iter:  78  16:36:17  -6.51          -13.868317    32              +0.0000
iter:  79  16:36:18  -7.21          -13.868317    32              +0.0000
iter:  80  16:36:20  -6.53          -13.868317    32              +0.0000
iter:  81  16:36:21  -7.19          -13.868317    32              +0.0000
iter:  82  16:36:23  -6.52          -13.868317    32              +0.0000
iter:  83  16:36:24  -6.90          -13.868317    32              +0.0000
iter:  84  16:36:25  -6.51          -13.868317    32              +0.0000
iter:  85  16:36:27  -7.15          -13.868317    32              +0.0000
iter:  86  16:36:28  -6.48          -13.868317    32              +0.0000
iter:  87  16:36:30  -7.05          -13.868317    32              +0.0000
iter:  88  16:36:31  -6.47          -13.868317    32              +0.0000
iter:  89  16:36:33  -7.17          -13.868317    32              +0.0000
iter:  90  16:36:34  -6.45          -13.868317    32              +0.0000
iter:  91  16:36:35  -7.15          -13.868317    32              +0.0000
iter:  92  16:36:37  -6.43          -13.868317    32              +0.0000
iter:  93  16:36:38  -7.14          -13.868317    32              +0.0000
iter:  94  16:36:40  -6.40          -13.868317    32              +0.0000
iter:  95  16:36:41  -7.12          -13.868317    32              +0.0000
iter:  96  16:36:42  -6.38          -13.868317    32              +0.0000
iter:  97  16:36:44  -7.10          -13.868317    32              +0.0000
iter:  98  16:36:45  -6.36          -13.868317    32              +0.0000
iter:  99  16:36:47  -7.09          -13.868317    32              +0.0000
iter: 100  16:36:48  -6.34          -13.868317    32              +0.0000
iter: 101  16:36:50  -7.07          -13.868317    32              +0.0000
iter: 102  16:36:51  -6.32          -13.868317    32              +0.0000
iter: 103  16:36:52  -7.05          -13.868317    32              +0.0000
iter: 104  16:36:54  -6.30          -13.868317    32              +0.0000
iter: 105  16:36:55  -7.03          -13.868317    32              +0.0000
iter: 106  16:36:57  -6.28          -13.868317    32              +0.0000
iter: 107  16:36:58  -7.01          -13.868317    32              +0.0000
iter: 108  16:37:00  -6.26          -13.868317    32              +0.0000
iter: 109  16:37:01  -6.99          -13.868317    32              +0.0000
iter: 110  16:37:02  -6.24          -13.868317    32              +0.0000
iter: 111  16:37:04  -6.98          -13.868317    32              +0.0000
iter: 112  16:37:05  -6.22          -13.868317    32              +0.0000
iter: 113  16:37:07  -6.96          -13.868317    32              +0.0000
iter: 114  16:37:08  -6.20          -13.868317    32              +0.0000
iter: 115  16:37:10  -6.94          -13.868317    32              +0.0000
iter: 116  16:37:11  -6.18          -13.868317    32              +0.0000
iter: 117  16:37:13  -6.92          -13.868317    32              +0.0000
iter: 118  16:37:14  -6.16          -13.868317    32              +0.0000
iter: 119  16:37:15  -6.90          -13.868317    32              +0.0000
iter: 120  16:37:17  -6.14          -13.868317    32              +0.0000
iter: 121  16:37:18  -6.88          -13.868317    32              +0.0000
iter: 122  16:37:20  -6.12          -13.868317    32              +0.0000
iter: 123  16:37:21  -6.87          -13.868317    32              +0.0000
iter: 124  16:37:23  -6.10          -13.868317    32              +0.0000
iter: 125  16:37:24  -6.85          -13.868317    32              +0.0000
iter: 126  16:37:25  -6.08          -13.868317    32              +0.0000
iter: 127  16:37:27  -6.82          -13.868317    32              +0.0000
iter: 128  16:37:28  -6.07          -13.868317    32              +0.0000
iter: 129  16:37:30  -6.81          -13.868317    32              +0.0000
iter: 130  16:37:31  -6.05          -13.868317    32              +0.0000
iter: 131  16:37:32  -6.80          -13.868317    32              +0.0000
iter: 132  16:37:34  -6.03          -13.868317    32              +0.0000
iter: 133  16:37:35  -6.78          -13.868317    32              +0.0000
iter: 134  16:37:37  -6.02          -13.868317    32              +0.0000
iter: 135  16:37:38  -6.77          -13.868317    32              +0.0000
iter: 136  16:37:39  -6.11          -13.868317    32              +0.0000
iter: 137  16:37:41  -6.29          -13.868317    32              +0.0000
iter: 138  16:37:42  -5.63          -13.868317    32              +0.0000
iter: 139  16:37:43  -6.26          -13.868317    32              +0.0000
iter: 140  16:37:45  -5.58          -13.868317    32              +0.0000
iter: 141  16:37:46  -6.65          -13.868317    32              +0.0000
iter: 142  16:37:47  -6.02          -13.868317    32              +0.0000
iter: 143  16:37:49  -6.64          -13.868317    32              +0.0000
iter: 144  16:37:50  -6.01          -13.868317    32              +0.0000
iter: 145  16:37:52  -6.63          -13.868317    32              +0.0000
iter: 146  16:37:53  -5.99          -13.868317    32              +0.0000
iter: 147  16:37:54  -6.61          -13.868317    32              +0.0000
iter: 148  16:37:56  -5.98          -13.868317    32              +0.0000
iter: 149  16:37:57  -6.60          -13.868317    32              +0.0000
iter: 150  16:37:58  -5.97          -13.868317    32              +0.0000
iter: 151  16:38:00  -6.59          -13.868317    32              +0.0000
iter: 152  16:38:01  -5.95          -13.868317    32              +0.0000
iter: 153  16:38:03  -6.57          -13.868317    32              +0.0000
iter: 154  16:38:04  -5.94          -13.868317    32              +0.0000
iter: 155  16:38:05  -6.56          -13.868317    32              +0.0000
iter: 156  16:38:07  -5.93          -13.868317    32              +0.0000
iter: 157  16:38:08  -6.55          -13.868317    32              +0.0000
iter: 158  16:38:09  -5.92          -13.868317    32              +0.0000
iter: 159  16:38:11  -6.54          -13.868317    32              +0.0000
iter: 160  16:38:12  -5.91          -13.868317    32              +0.0000
iter: 161  16:38:14  -6.53          -13.868317    32              +0.0000
iter: 162  16:38:15  -5.90          -13.868317    32              +0.0000
iter: 163  16:38:16  -6.52          -13.868317    32              +0.0000
iter: 164  16:38:18  -5.90          -13.868317    32              +0.0000
iter: 165  16:38:19  -6.51          -13.868317    32              +0.0000
iter: 166  16:38:21  -5.89          -13.868317    32              +0.0000
iter: 167  16:38:22  -6.50          -13.868317    32              +0.0000
iter: 168  16:38:23  -5.88          -13.868317    32              +0.0000
iter: 169  16:38:25  -6.49          -13.868317    32              +0.0000
iter: 170  16:38:26  -5.87          -13.868317    32              +0.0000
iter: 171  16:38:27  -6.49          -13.868317    32              +0.0000
iter: 172  16:38:29  -5.86          -13.868317    32              +0.0000
iter: 173  16:38:30  -6.48          -13.868317    32              +0.0000
iter: 174  16:38:32  -5.86          -13.868317    32              +0.0000
iter: 175  16:38:33  -6.47          -13.868317    32              +0.0000
iter: 176  16:38:34  -5.85          -13.868317    32              +0.0000
iter: 177  16:38:36  -6.46          -13.868317    32              +0.0000
iter: 178  16:38:37  -5.85          -13.868317    32              +0.0000
iter: 179  16:38:38  -6.46          -13.868317    32              +0.0000
iter: 180  16:38:40  -5.84          -13.868317    32              +0.0000
iter: 181  16:38:41  -6.45          -13.868317    32              +0.0000
iter: 182  16:38:43  -5.84          -13.868317    32              +0.0000
iter: 183  16:38:44  -6.45          -13.868317    32              +0.0000
iter: 184  16:38:45  -5.83          -13.868317    32              +0.0000
iter: 185  16:38:47  -6.44          -13.868317    32              +0.0000
iter: 186  16:38:48  -5.83          -13.868317    32              +0.0000
iter: 187  16:38:49  -6.44          -13.868317    32              +0.0000
iter: 188  16:38:51  -5.83          -13.868317    32              +0.0000
iter: 189  16:38:52  -6.43          -13.868317    32              +0.0000
iter: 190  16:38:53  -5.83          -13.868317    32              +0.0000
iter: 191  16:38:55  -6.43          -13.868317    32              +0.0000
iter: 192  16:38:56  -5.82          -13.868317    32              +0.0000
iter: 193  16:38:58  -6.43          -13.868317    32              +0.0000
iter: 194  16:38:59  -5.82          -13.868317    32              +0.0000
iter: 195  16:39:00  -6.43          -13.868317    32              +0.0000
iter: 196  16:39:02  -5.82          -13.868317    32              +0.0000
iter: 197  16:39:03  -6.43          -13.868317    32              +0.0000
iter: 198  16:39:04  -5.83          -13.868317    32              +0.0000
iter: 199  16:39:06  -6.43          -13.868317    32              +0.0000
iter: 200  16:39:07  -5.83          -13.868317    32              +0.0000
iter: 201  16:39:08  -6.43          -13.868317    32              +0.0000
iter: 202  16:39:10  -5.83          -13.868317    32              +0.0000
iter: 203  16:39:11  -6.43          -13.868317    32              +0.0000
iter: 204  16:39:12  -5.83          -13.868317    32              +0.0000
iter: 205  16:39:14  -6.43          -13.868317    32              +0.0000
iter: 206  16:39:15  -5.84          -13.868317    32              +0.0000
iter: 207  16:39:17  -6.43          -13.868317    32              +0.0000
iter: 208  16:39:18  -5.84          -13.868317    32              +0.0000
iter: 209  16:39:19  -6.44          -13.868317    32              +0.0000
iter: 210  16:39:21  -5.85          -13.868317    32              +0.0000
iter: 211  16:39:22  -6.44          -13.868317    32              +0.0000
iter: 212  16:39:23  -5.85          -13.868317    32              +0.0000
iter: 213  16:39:25  -6.45          -13.868317    32              +0.0000
iter: 214  16:39:26  -5.86          -13.868317    32              +0.0000
iter: 215  16:39:27  -6.45          -13.868317    32              +0.0000
iter: 216  16:39:29  -5.86          -13.868317    32              +0.0000
iter: 217  16:39:30  -6.46          -13.868317    32              +0.0000
iter: 218  16:39:31  -5.87          -13.868317    32              +0.0000
iter: 219  16:39:33  -6.46          -13.868317    32              +0.0000
iter: 220  16:39:34  -5.88          -13.868317    32              +0.0000
iter: 221  16:39:35  -6.47          -13.868317    32              +0.0000
iter: 222  16:39:37  -5.89          -13.868317    32              +0.0000
iter: 223  16:39:38  -6.48          -13.868317    32              +0.0000
iter: 224  16:39:39  -5.90          -13.868317    32              +0.0000
iter: 225  16:39:41  -6.49          -13.868317    32              +0.0000
iter: 226  16:39:42  -5.91          -13.868317    32              +0.0000
iter: 227  16:39:43  -6.50          -13.868317    32              +0.0000
iter: 228  16:39:45  -5.92          -13.868317    32              +0.0000
iter: 229  16:39:46  -6.51          -13.868317    32              +0.0000
iter: 230  16:39:47  -5.93          -13.868317    32              +0.0000
iter: 231  16:39:49  -6.52          -13.868317    32              +0.0000
iter: 232  16:39:50  -5.94          -13.868317    32              +0.0000
iter: 233  16:39:51  -6.53          -13.868317    32              +0.0000
iter: 234  16:39:53  -5.95          -13.868317    32              +0.0000
iter: 235  16:39:54  -6.54          -13.868317    32              +0.0000
iter: 236  16:39:55  -5.97          -13.868317    32              +0.0000
iter: 237  16:39:57  -6.55          -13.868317    32              +0.0000
iter: 238  16:39:58  -5.98          -13.868317    32              +0.0000
iter: 239  16:39:59  -6.56          -13.868317    32              +0.0000
iter: 240  16:40:01  -5.99          -13.868317    32              +0.0000
iter: 241  16:40:02  -6.57          -13.868317    32              +0.0000
iter: 242  16:40:03  -6.01          -13.868317    32              +0.0000
iter: 243  16:40:05  -6.59          -13.868317    32              +0.0000
iter: 244  16:40:06  -6.02          -13.868317    32              +0.0000
iter: 245  16:40:07  -6.60          -13.868317    32              +0.0000
iter: 246  16:40:09  -6.04          -13.868317    32              +0.0000
iter: 247  16:40:10  -6.61          -13.868317    32              +0.0000
iter: 248  16:40:11  -6.05          -13.868317    32              +0.0000
iter: 249  16:40:13  -6.63          -13.868317    32              +0.0000
iter: 250  16:40:14  -6.07          -13.868317    32              +0.0000
iter: 251  16:40:15  -6.64          -13.868317    32              +0.0000
iter: 252  16:40:17  -6.09          -13.868317    32              +0.0000
iter: 253  16:40:18  -6.66          -13.868317    32              +0.0000
iter: 254  16:40:19  -6.10          -13.868317    32              +0.0000
iter: 255  16:40:21  -6.68          -13.868317    32              +0.0000
iter: 256  16:40:22  -6.12          -13.868317    32              +0.0000
iter: 257  16:40:23  -6.69          -13.868317    32              +0.0000
iter: 258  16:40:25  -6.14          -13.868317    32              +0.0000
iter: 259  16:40:26  -6.71          -13.868317    32              +0.0000
iter: 260  16:40:27  -6.16          -13.868317    32              +0.0000
iter: 261  16:40:29  -6.72          -13.868317    32              +0.0000
iter: 262  16:40:30  -6.18          -13.868317    32              +0.0000
iter: 263  16:40:31  -6.74          -13.868317    32              +0.0000
iter: 264  16:40:33  -6.19          -13.868317    32              +0.0000
iter: 265  16:40:34  -6.76          -13.868317    32              +0.0000
iter: 266  16:40:35  -6.21          -13.868317    32              +0.0000
iter: 267  16:40:37  -6.78          -13.868317    32              +0.0000
iter: 268  16:40:38  -6.23          -13.868317    32              +0.0000
iter: 269  16:40:39  -6.80          -13.868317    32              +0.0000
iter: 270  16:40:41  -6.25          -13.868317    32              +0.0000
iter: 271  16:40:42  -6.81          -13.868317    32              +0.0000
iter: 272  16:40:43  -6.27          -13.868317    32              +0.0000
iter: 273  16:40:45  -6.83          -13.868317    32              +0.0000
iter: 274  16:40:46  -6.29          -13.868317    32              +0.0000
iter: 275  16:40:47  -6.85          -13.868317    32              +0.0000
iter: 276  16:40:49  -6.31          -13.868317    32              +0.0000
iter: 277  16:40:50  -6.87          -13.868317    32              +0.0000
iter: 278  16:40:51  -6.33          -13.868317    32              +0.0000
iter: 279  16:40:53  -6.89          -13.868317    32              +0.0000
iter: 280  16:40:54  -6.35          -13.868317    32              +0.0000
iter: 281  16:40:55  -6.91          -13.868317    32              +0.0000
iter: 282  16:40:57  -6.37          -13.868317    32              +0.0000
iter: 283  16:40:58  -6.93          -13.868317    32              +0.0000
iter: 284  16:40:59  -6.40          -13.868317    32              +0.0000
iter: 285  16:41:01  -6.95          -13.868317    32              +0.0000
iter: 286  16:41:02  -6.42          -13.868317    32              +0.0000
iter: 287  16:41:03  -6.97          -13.868317    32              +0.0000
iter: 288  16:41:05  -6.44          -13.868317    32              +0.0000
iter: 289  16:41:06  -6.99          -13.868317    32              +0.0000
iter: 290  16:41:07  -6.46          -13.868317    32              +0.0000
iter: 291  16:41:09  -7.01          -13.868317    32              +0.0000
iter: 292  16:41:10  -6.48          -13.868317    32              +0.0000
iter: 293  16:41:11  -7.03          -13.868317    32              +0.0000
iter: 294  16:41:13  -6.50          -13.868317    32              +0.0000
iter: 295  16:41:14  -7.05          -13.868317    32              +0.0000
iter: 296  16:41:15  -6.53          -13.868317    32              +0.0000
iter: 297  16:41:17  -7.07          -13.868317    32              +0.0000
iter: 298  16:41:18  -6.55          -13.868317    32              +0.0000
iter: 299  16:41:19  -7.09          -13.868317    32              +0.0000
iter: 300  16:41:21  -6.57          -13.868317    32              +0.0000
iter: 301  16:41:22  -7.12          -13.868317    32              +0.0000
iter: 302  16:41:23  -6.59          -13.868317    32              +0.0000
iter: 303  16:41:25  -7.14          -13.868317    32              +0.0000
iter: 304  16:41:26  -6.61          -13.868317    32              +0.0000
iter: 305  16:41:27  -7.16          -13.868317    32              +0.0000
iter: 306  16:41:29  -6.64          -13.868317    32              +0.0000
iter: 307  16:41:30  -7.18          -13.868317    32              +0.0000
iter: 308  16:41:31  -6.66          -13.868317    32              +0.0000
iter: 309  16:41:33  -7.20          -13.868317    32              +0.0000
iter: 310  16:41:34  -6.68          -13.868317    32              +0.0000
iter: 311  16:41:35  -7.22          -13.868317    32              +0.0000
iter: 312  16:41:37  -6.71          -13.868317    32              +0.0000
iter: 313  16:41:38  -7.24          -13.868317    32              +0.0000
iter: 314  16:41:39  -6.73          -13.868317    32              +0.0000
iter: 315  16:41:41  -7.27          -13.868317    32              +0.0000
iter: 316  16:41:42  -6.75          -13.868317    32              +0.0000
iter: 317  16:41:43  -7.29          -13.868317    32              +0.0000
iter: 318  16:41:45  -6.78          -13.868317    32              +0.0000
iter: 319  16:41:46  -7.31          -13.868317    32              +0.0000
iter: 320  16:41:47  -6.80          -13.868317    32              +0.0000
iter: 321  16:41:49  -7.33          -13.868317    32              +0.0000
iter: 322  16:41:50  -6.82          -13.868317    32              +0.0000
iter: 323  16:41:51  -7.36          -13.868317    32              +0.0000
iter: 324  16:41:53  -6.85          -13.868317    32              +0.0000
iter: 325  16:41:54  -7.38          -13.868317    32              +0.0000
iter: 326  16:41:55  -6.87          -13.868317    32              +0.0000
iter: 327  16:41:56  -7.40          -13.868317    32              +0.0000

Converged after 327 iterations.

Dipole moment: (-2.345190, 1.353996, -0.000000) |e|*Ang

Total magnetic moment: 0.000000
Local magnetic moments:
   0 Ti -0.000000
   1 Ti -0.000000

Energy contributions relative to reference atoms: (reference = -46448.028563)

Kinetic:         +7.452238
Potential:       -8.702834
External:        +0.000000
XC:             -12.910006
Entropy (-ST):   -0.004877
Local:           +0.294724
--------------------------
Free energy:    -13.870756
Extrapolated:   -13.868317

Spin contamination: 0.000000 electrons
Fixed Fermi level: 8.36657

Warning: Showing only first 2 kpts
                      Up                     Down
 Kpt  Band  Eigenvalues  Occupancy  Eigenvalues  Occupancy
  0    10      9.03657    0.00000      9.03657    0.00000
  0    11      9.13051    0.00000      9.13051    0.00000
  0    12      9.13181    0.00000      9.13181    0.00000
  0    13      9.21557    0.00000      9.21557    0.00000

  1    10      8.96663    0.00000      8.96663    0.00000
  1    11      9.02592    0.00000      9.02592    0.00000
  1    12      9.15579    0.00000      9.15579    0.00000
  1    13      9.30753    0.00000      9.30753    0.00000


Timing:                              incl.     excl.
-----------------------------------------------------------
Hamiltonian:                         0.963     0.001   0.0% |
 Atomic:                             0.716     0.003   0.0% |
  XC Correction:                     0.713     0.713   0.1% |
 Calculate atomic Hamiltonians:      0.020     0.020   0.0% |
 Communicate:                        0.000     0.000   0.0% |
 Initialize Hamiltonian:             0.000     0.000   0.0% |
 Poisson:                            0.000     0.000   0.0% |
 XC 3D grid:                         0.225     0.225   0.0% |
LCAO initialization:                 9.359     0.210   0.0% |
 LCAO eigensolver:                   2.999     0.019   0.0% |
  Calculate projections:             0.014     0.014   0.0% |
  DenseAtomicCorrection:             0.056     0.056   0.0% |
  Distribute overlap matrix:         0.008     0.008   0.0% |
  Orbital Layouts:                   0.305     0.305   0.0% |
  Potential matrix:                  1.515     1.515   0.2% |
  Sum over cells:                    1.082     1.082   0.2% |
 LCAO to grid:                       4.667     4.667   0.7% |
 Set positions (LCAO WFS):           1.483     0.002   0.0% |
  Basic WFS set positions:           0.001     0.001   0.0% |
  Basis functions set positions:     0.000     0.000   0.0% |
  TCI: Calculate S, T, P:            1.479     1.479   0.2% |
PWDescriptor:                        0.038     0.038   0.0% |
Redistribute:                        0.000     0.000   0.0% |
SCF-cycle:                         639.148   116.841  17.9% |------|
 CG:                               170.208   157.985  24.2% |---------|
  CG: orthonormalize:               12.223     6.558   1.0% |
   CG: overlap:                      3.432     3.432   0.5% |
   CG: overlap2:                     2.233     2.233   0.3% |
 Davidson:                          49.632    22.785   3.5% ||
  calc. matrices:                   15.451    15.451   2.4% ||
  diagonalize:                      10.246    10.246   1.6% ||
  rotate_psi:                        1.150     1.150   0.2% |
 Density:                            6.086     0.001   0.0% |
  Atomic density matrices:           0.077     0.077   0.0% |
  Mix:                               0.249     0.249   0.0% |
  Multipole moments:                 0.003     0.003   0.0% |
  Pseudo density:                    5.757     5.654   0.9% |
   Symmetrize density:               0.103     0.103   0.0% |
 Hamiltonian:                        8.143     0.014   0.0% |
  Atomic:                            6.433     0.024   0.0% |
   XC Correction:                    6.409     6.409   1.0% |
  Calculate atomic Hamiltonians:     0.151     0.151   0.0% |
  Communicate:                       0.000     0.000   0.0% |
  Poisson:                           0.006     0.006   0.0% |
  XC 3D grid:                        1.539     1.539   0.2% |
 Orthonormalize:                     0.458     0.016   0.0% |
  Band Layouts:                      0.020     0.004   0.0% |
   Inverse Cholesky:                 0.016     0.016   0.0% |
  calc_s_matrix:                     0.064     0.064   0.0% |
  projections:                       0.307     0.307   0.0% |
  rotate_psi:                        0.051     0.051   0.0% |
 Residuals:                         66.081    66.081  10.1% |---|
 Subspace diag:                    221.698     4.766   0.7% |
  Band Layouts:                     20.596     1.342   0.2% |
   Diagonalize:                     18.270    18.270   2.8% ||
   Distribute results:               0.983     0.983   0.2% |
  calc_h_matrix:                   183.306   183.306  28.1% |----------|
  rotate_psi:                       13.030    13.030   2.0% ||
Set symmetry:                        0.031     0.031   0.0% |
Other:                               3.372     3.372   0.5% |
-----------------------------------------------------------
Total:                                       652.912 100.0%

Date: Thu Feb 11 16:41:58 2021
element =  Ti
struct =  hcp
kpts =  (8,8,4)
element =  Ti
configuration =  [Ar] 3d2 4s2 4p0
valence =  ['3d', '4s', '4p']
occupations =  {'3d': 2, '4s': 2, '4p': 0}
nls =  3d
rNum =  600
lmax =  d
*******************************************
Starting confinement parameter optimization
Adjustable parameters and initial values:
  Ti_3d.r0 : 6.047124
  Ti_4p.r0 : 6.047124
  Ti_4s.r0 : 6.047124
  Ti_n.r0 : 9.070685
*******************************************

OPT_VAL: 6.047123602678171   6.047123602678171   6.047123602678171   9.070685404017258
VCONF:
  Ti_3d : PowerConfinement(r0=6.047124, s=2.000000)
  Ti_4p : PowerConfinement(r0=6.047124, s=2.000000)
  Ti_4s : PowerConfinement(r0=6.047124, s=2.000000)
  Ti_n : PowerConfinement(r0=9.070685, s=2.000000)
RESIDUAL: 0.0

OPT_VAL: 6.247123602678172   6.047123602678171   6.047123602678171   9.070685404017258
VCONF:
  Ti_3d : PowerConfinement(r0=6.247124, s=2.000000)
  Ti_4p : PowerConfinement(r0=6.047124, s=2.000000)
  Ti_4s : PowerConfinement(r0=6.047124, s=2.000000)
  Ti_n : PowerConfinement(r0=9.070685, s=2.000000)
RESIDUAL: 0.0

OPT_VAL: 6.047123602678171   6.247123602678172   6.047123602678171   9.070685404017258
VCONF:
  Ti_3d : PowerConfinement(r0=6.047124, s=2.000000)
  Ti_4p : PowerConfinement(r0=6.247124, s=2.000000)
  Ti_4s : PowerConfinement(r0=6.047124, s=2.000000)
  Ti_n : PowerConfinement(r0=9.070685, s=2.000000)
RESIDUAL: 0.0

OPT_VAL: 6.047123602678171   6.047123602678171   6.247123602678172   9.070685404017258
VCONF:
  Ti_3d : PowerConfinement(r0=6.047124, s=2.000000)
  Ti_4p : PowerConfinement(r0=6.047124, s=2.000000)
  Ti_4s : PowerConfinement(r0=6.247124, s=2.000000)
  Ti_n : PowerConfinement(r0=9.070685, s=2.000000)
RESIDUAL: 0.0

OPT_VAL: 6.047123602678171   6.047123602678171   6.047123602678171   9.270685404017257
VCONF:
  Ti_3d : PowerConfinement(r0=6.047124, s=2.000000)
  Ti_4p : PowerConfinement(r0=6.047124, s=2.000000)
  Ti_4s : PowerConfinement(r0=6.047124, s=2.000000)
  Ti_n : PowerConfinement(r0=9.270685, s=2.000000)
RESIDUAL: 0.0

OPT_VAL: 6.072123602678172   6.047123602678171   6.047123602678171   9.070685404017258
VCONF:
  Ti_3d : PowerConfinement(r0=6.072124, s=2.000000)
  Ti_4p : PowerConfinement(r0=6.047124, s=2.000000)
  Ti_4s : PowerConfinement(r0=6.047124, s=2.000000)
  Ti_n : PowerConfinement(r0=9.070685, s=2.000000)
RESIDUAL: 0.0

OPT_VAL: 6.047123602678171   6.072123602678172   6.047123602678171   9.070685404017258
VCONF:
  Ti_3d : PowerConfinement(r0=6.047124, s=2.000000)
  Ti_4p : PowerConfinement(r0=6.072124, s=2.000000)
  Ti_4s : PowerConfinement(r0=6.047124, s=2.000000)
  Ti_n : PowerConfinement(r0=9.070685, s=2.000000)
RESIDUAL: 0.0

OPT_VAL: 6.047123602678171   6.047123602678171   6.072123602678172   9.070685404017258
VCONF:
  Ti_3d : PowerConfinement(r0=6.047124, s=2.000000)
  Ti_4p : PowerConfinement(r0=6.047124, s=2.000000)
  Ti_4s : PowerConfinement(r0=6.072124, s=2.000000)
  Ti_n : PowerConfinement(r0=9.070685, s=2.000000)
RESIDUAL: 0.0

OPT_VAL: 6.047123602678171   6.047123602678171   6.047123602678171   9.095685404017258
VCONF:
  Ti_3d : PowerConfinement(r0=6.047124, s=2.000000)
  Ti_4p : PowerConfinement(r0=6.047124, s=2.000000)
  Ti_4s : PowerConfinement(r0=6.047124, s=2.000000)
  Ti_n : PowerConfinement(r0=9.095685, s=2.000000)
RESIDUAL: 0.0

OPT_VAL: 6.052123602678171   6.047123602678171   6.047123602678171   9.070685404017258
VCONF:
  Ti_3d : PowerConfinement(r0=6.052124, s=2.000000)
  Ti_4p : PowerConfinement(r0=6.047124, s=2.000000)
  Ti_4s : PowerConfinement(r0=6.047124, s=2.000000)
  Ti_n : PowerConfinement(r0=9.070685, s=2.000000)
RESIDUAL: 0.0

OPT_VAL: 6.047123602678171   6.052123602678171   6.047123602678171   9.070685404017258
VCONF:
  Ti_3d : PowerConfinement(r0=6.047124, s=2.000000)
  Ti_4p : PowerConfinement(r0=6.052124, s=2.000000)
  Ti_4s : PowerConfinement(r0=6.047124, s=2.000000)
  Ti_n : PowerConfinement(r0=9.070685, s=2.000000)
RESIDUAL: 0.0

OPT_VAL: 6.047123602678171   6.047123602678171   6.052123602678171   9.070685404017258
VCONF:
  Ti_3d : PowerConfinement(r0=6.047124, s=2.000000)
  Ti_4p : PowerConfinement(r0=6.047124, s=2.000000)
  Ti_4s : PowerConfinement(r0=6.052124, s=2.000000)
  Ti_n : PowerConfinement(r0=9.070685, s=2.000000)
RESIDUAL: 0.0

OPT_VAL: 6.047123602678171   6.047123602678171   6.047123602678171   9.075685404017259
VCONF:
  Ti_3d : PowerConfinement(r0=6.047124, s=2.000000)
  Ti_4p : PowerConfinement(r0=6.047124, s=2.000000)
  Ti_4s : PowerConfinement(r0=6.047124, s=2.000000)
  Ti_n : PowerConfinement(r0=9.075685, s=2.000000)
RESIDUAL: 0.0

*******************************************
Optimization finished after 13 iterations
Adjustable parameters and final values:
  Ti_3d.r0 : 6.047124
  Ti_4p.r0 : 6.047124
  Ti_4s.r0 : 6.047124
  Ti_n.r0 : 9.070685
*******************************************

VCONF:
  Ti_3d : PowerConfinement(r0=6.047124, s=2.000000)
  Ti_4p : PowerConfinement(r0=6.047124, s=2.000000)
  Ti_4s : PowerConfinement(r0=6.047124, s=2.000000)
  Ti_n : PowerConfinement(r0=9.070685, s=2.000000)
