
     Program PWSCF v.6.0 (svn rev. 13079) starts on 26Feb2021 at 16:47:25 

     This program is part of the open-source Quantum ESPRESSO suite
     for quantum simulation of materials; please cite
         "P. Giannozzi et al., J. Phys.:Condens. Matter 21 395502 (2009);
          URL http://www.quantum-espresso.org", 
     in publications or presentations arising from this work. More details at
     http://www.quantum-espresso.org/quote

     Parallel version (MPI), running on     1 processors
     Reading input from espresso.pwi
Warning: card &IONS ignored
Warning: card / ignored
Warning: card &CELL ignored
Warning: card / ignored

     Current dimensions of program PWSCF are:
     Max number of different atomic species (ntypx) = 10
     Max number of k-points (npk) =  40000
     Max angular momentum in pseudopotentials (lmaxx) =  3
     Message from routine input:
     WARNING: "startingwfc" set to atomic+random may spoil restart

     Atomic positions and unit cell read from directory:
     ./pwscf.save/


     IMPORTANT: XC functional enforced from input :
     Exchange-correlation      = PBE ( 1  4  3  4 0 0)
     Any further DFT definition will be discarded
     Please, verify this is what you really want


     Subspace diagonalization in iterative solution of the eigenvalue problem:
     a serial algorithm will be used

     Found symmetry operation: I + ( -0.5000 -0.5000 -0.5000)
     This is a supercell, fractional translations are disabled

     G-vector sticks info
     --------------------
     sticks:   dense  smooth     PW     G-vecs:    dense   smooth      PW
     Sum         613     497    149                17783    12743    2209



     bravais-lattice index     =            0
     lattice parameter (alat)  =       6.2331  a.u.
     unit-cell volume          =     371.6855 (a.u.)^3
     number of atoms/cell      =            2
     number of atomic types    =            1
     number of electrons       =        26.00
     number of Kohn-Sham states=           17
     kinetic-energy cutoff     =      40.0000  Ry
     charge density cutoff     =     200.0000  Ry
     Exchange-correlation      = PBE ( 1  4  3  4 0 0)

     celldm(1)=   6.233090  celldm(2)=   0.000000  celldm(3)=   0.000000
     celldm(4)=   0.000000  celldm(5)=   0.000000  celldm(6)=   0.000000

     crystal axes: (cart. coord. in units of alat)
               a(1) = (   1.000000   0.000000   0.000000 )  
               a(2) = (   0.000000   1.000000   0.000000 )  
               a(3) = (   0.000000   0.000000   1.534848 )  

     reciprocal axes: (cart. coord. in units 2 pi/alat)
               b(1) = (  1.000000  0.000000  0.000000 )  
               b(2) = (  0.000000  1.000000  0.000000 )  
               b(3) = (  0.000000  0.000000  0.651530 )  


     PseudoPot. # 1 for In read from file:
     /home/inukai/tango/tests/1element/qe_fit_v3_In/../pseudo/in_pbe_v1.4.uspp.F.UPF
     MD5 check sum: 90777abd96fbb83f2e67db2a40c566b9
     Pseudo is Ultrasoft + core correction, Zval = 13.0
     Generated by new atomic code, or converted to UPF format
     Using radial grid of  889 points,  6 beta functions with: 
                l(1) =   0
                l(2) =   0
                l(3) =   1
                l(4) =   1
                l(5) =   2
                l(6) =   2
     Q(r) pseudized with  6 coefficients,  rinner =    1.400   1.400   1.400
                                                       1.400   1.400

     atomic species   valence    mass     pseudopotential
        In            13.00   114.81800     In( 1.00)

     16 Sym. Ops., with inversion, found


                                    s                        frac. trans.

      isym =  1     identity                                     

 cryst.   s( 1) = (     1          0          0      )
                  (     0          1          0      )
                  (     0          0          1      )

 cart.    s( 1) = (  1.0000000  0.0000000  0.0000000 )
                  (  0.0000000  1.0000000  0.0000000 )
                  (  0.0000000  0.0000000  1.0000000 )


      isym =  2     180 deg rotation - cart. axis [0,0,1]        

 cryst.   s( 2) = (    -1          0          0      )
                  (     0         -1          0      )
                  (     0          0          1      )

 cart.    s( 2) = ( -1.0000000  0.0000000  0.0000000 )
                  (  0.0000000 -1.0000000  0.0000000 )
                  (  0.0000000  0.0000000  1.0000000 )


      isym =  3     180 deg rotation - cart. axis [0,1,0]        

 cryst.   s( 3) = (    -1          0          0      )
                  (     0          1          0      )
                  (     0          0         -1      )

 cart.    s( 3) = ( -1.0000000  0.0000000  0.0000000 )
                  (  0.0000000  1.0000000  0.0000000 )
                  (  0.0000000  0.0000000 -1.0000000 )


      isym =  4     180 deg rotation - cart. axis [1,0,0]        

 cryst.   s( 4) = (     1          0          0      )
                  (     0         -1          0      )
                  (     0          0         -1      )

 cart.    s( 4) = (  1.0000000  0.0000000  0.0000000 )
                  (  0.0000000 -1.0000000  0.0000000 )
                  (  0.0000000  0.0000000 -1.0000000 )


      isym =  5     180 deg rotation - cart. axis [1,1,0]        

 cryst.   s( 5) = (     0          1          0      )
                  (     1          0          0      )
                  (     0          0         -1      )

 cart.    s( 5) = (  0.0000000  1.0000000  0.0000000 )
                  (  1.0000000  0.0000000  0.0000000 )
                  (  0.0000000  0.0000000 -1.0000000 )


      isym =  6     180 deg rotation - cart. axis [1,-1,0]       

 cryst.   s( 6) = (     0         -1          0      )
                  (    -1          0          0      )
                  (     0          0         -1      )

 cart.    s( 6) = (  0.0000000 -1.0000000  0.0000000 )
                  ( -1.0000000  0.0000000  0.0000000 )
                  (  0.0000000  0.0000000 -1.0000000 )


      isym =  7      90 deg rotation - cart. axis [0,0,-1]       

 cryst.   s( 7) = (     0         -1          0      )
                  (     1          0          0      )
                  (     0          0          1      )

 cart.    s( 7) = (  0.0000000  1.0000000  0.0000000 )
                  ( -1.0000000  0.0000000  0.0000000 )
                  (  0.0000000  0.0000000  1.0000000 )


      isym =  8      90 deg rotation - cart. axis [0,0,1]        

 cryst.   s( 8) = (     0          1          0      )
                  (    -1          0          0      )
                  (     0          0          1      )

 cart.    s( 8) = (  0.0000000 -1.0000000  0.0000000 )
                  (  1.0000000  0.0000000  0.0000000 )
                  (  0.0000000  0.0000000  1.0000000 )


      isym =  9     inversion                                    

 cryst.   s( 9) = (    -1          0          0      )
                  (     0         -1          0      )
                  (     0          0         -1      )

 cart.    s( 9) = ( -1.0000000  0.0000000  0.0000000 )
                  (  0.0000000 -1.0000000  0.0000000 )
                  (  0.0000000  0.0000000 -1.0000000 )


      isym = 10     inv. 180 deg rotation - cart. axis [0,0,1]   

 cryst.   s(10) = (     1          0          0      )
                  (     0          1          0      )
                  (     0          0         -1      )

 cart.    s(10) = (  1.0000000  0.0000000  0.0000000 )
                  (  0.0000000  1.0000000  0.0000000 )
                  (  0.0000000  0.0000000 -1.0000000 )


      isym = 11     inv. 180 deg rotation - cart. axis [0,1,0]   

 cryst.   s(11) = (     1          0          0      )
                  (     0         -1          0      )
                  (     0          0          1      )

 cart.    s(11) = (  1.0000000  0.0000000  0.0000000 )
                  (  0.0000000 -1.0000000  0.0000000 )
                  (  0.0000000  0.0000000  1.0000000 )


      isym = 12     inv. 180 deg rotation - cart. axis [1,0,0]   

 cryst.   s(12) = (    -1          0          0      )
                  (     0          1          0      )
                  (     0          0          1      )

 cart.    s(12) = ( -1.0000000  0.0000000  0.0000000 )
                  (  0.0000000  1.0000000  0.0000000 )
                  (  0.0000000  0.0000000  1.0000000 )


      isym = 13     inv. 180 deg rotation - cart. axis [1,1,0]   

 cryst.   s(13) = (     0         -1          0      )
                  (    -1          0          0      )
                  (     0          0          1      )

 cart.    s(13) = (  0.0000000 -1.0000000  0.0000000 )
                  ( -1.0000000  0.0000000  0.0000000 )
                  (  0.0000000  0.0000000  1.0000000 )


      isym = 14     inv. 180 deg rotation - cart. axis [1,-1,0]  

 cryst.   s(14) = (     0          1          0      )
                  (     1          0          0      )
                  (     0          0          1      )

 cart.    s(14) = (  0.0000000  1.0000000  0.0000000 )
                  (  1.0000000  0.0000000  0.0000000 )
                  (  0.0000000  0.0000000  1.0000000 )


      isym = 15     inv.  90 deg rotation - cart. axis [0,0,-1]  

 cryst.   s(15) = (     0          1          0      )
                  (    -1          0          0      )
                  (     0          0         -1      )

 cart.    s(15) = (  0.0000000 -1.0000000  0.0000000 )
                  (  1.0000000  0.0000000  0.0000000 )
                  (  0.0000000  0.0000000 -1.0000000 )


      isym = 16     inv.  90 deg rotation - cart. axis [0,0,1]   

 cryst.   s(16) = (     0         -1          0      )
                  (     1          0          0      )
                  (     0          0         -1      )

 cart.    s(16) = (  0.0000000  1.0000000  0.0000000 )
                  ( -1.0000000  0.0000000  0.0000000 )
                  (  0.0000000  0.0000000 -1.0000000 )


   Cartesian axes

     site n.     atom                  positions (alat units)
         1           In  tau(   1) = (   0.0000000   0.0000000   0.0000000  )
         2           In  tau(   2) = (   0.5000000   0.5000000   0.7674242  )

   Crystallographic axes

     site n.     atom                  positions (cryst. coord.)
         1           In  tau(   1) = (  0.0000000  0.0000000  0.0000000  )
         2           In  tau(   2) = (  0.5000000  0.5000000  0.5000000  )

     number of k points=    50  gaussian smearing, width (Ry)=  0.0010
                       cart. coord. in units 2pi/alat
        k(    1) = (   0.0000000   0.0000000   0.0000000), wk =   0.0400000
        k(    2) = (   0.0000000   0.1000000   0.0000000), wk =   0.0400000
        k(    3) = (   0.0000000   0.2000000   0.0000000), wk =   0.0400000
        k(    4) = (   0.0000000   0.3000000   0.0000000), wk =   0.0400000
        k(    5) = (   0.0000000   0.4000000   0.0000000), wk =   0.0400000
        k(    6) = (   0.0000000   0.5000000   0.0000000), wk =   0.0400000
        k(    7) = (   0.1000000   0.5000000   0.0000000), wk =   0.0400000
        k(    8) = (   0.2000000   0.5000000   0.0000000), wk =   0.0400000
        k(    9) = (   0.3000000   0.5000000   0.0000000), wk =   0.0400000
        k(   10) = (   0.4000000   0.5000000   0.0000000), wk =   0.0400000
        k(   11) = (   0.5000000   0.5000000   0.0000000), wk =   0.0400000
        k(   12) = (   0.4285714   0.4285714   0.0000000), wk =   0.0400000
        k(   13) = (   0.3571429   0.3571429   0.0000000), wk =   0.0400000
        k(   14) = (   0.2857143   0.2857143   0.0000000), wk =   0.0400000
        k(   15) = (   0.2142857   0.2142857   0.0000000), wk =   0.0400000
        k(   16) = (   0.1428571   0.1428571   0.0000000), wk =   0.0400000
        k(   17) = (   0.0714286   0.0714286   0.0000000), wk =   0.0400000
        k(   18) = (   0.0000000   0.0000000   0.0000000), wk =   0.0400000
        k(   19) = (   0.0000000   0.0000000   0.1085884), wk =   0.0400000
        k(   20) = (   0.0000000   0.0000000   0.2171767), wk =   0.0400000
        k(   21) = (   0.0000000   0.0000000   0.3257651), wk =   0.0400000
        k(   22) = (   0.0000000   0.1000000   0.3257651), wk =   0.0400000
        k(   23) = (   0.0000000   0.2000000   0.3257651), wk =   0.0400000
        k(   24) = (   0.0000000   0.3000000   0.3257651), wk =   0.0400000
        k(   25) = (   0.0000000   0.4000000   0.3257651), wk =   0.0400000
        k(   26) = (   0.0000000   0.5000000   0.3257651), wk =   0.0400000
        k(   27) = (   0.0833333   0.5000000   0.3257651), wk =   0.0400000
        k(   28) = (   0.1666667   0.5000000   0.3257651), wk =   0.0400000
        k(   29) = (   0.2500000   0.5000000   0.3257651), wk =   0.0400000
        k(   30) = (   0.3333333   0.5000000   0.3257651), wk =   0.0400000
        k(   31) = (   0.4166667   0.5000000   0.3257651), wk =   0.0400000
        k(   32) = (   0.5000000   0.5000000   0.3257651), wk =   0.0400000
        k(   33) = (   0.4444444   0.4444444   0.3257651), wk =   0.0400000
        k(   34) = (   0.3888889   0.3888889   0.3257651), wk =   0.0400000
        k(   35) = (   0.3333333   0.3333333   0.3257651), wk =   0.0400000
        k(   36) = (   0.2777778   0.2777778   0.3257651), wk =   0.0400000
        k(   37) = (   0.2222222   0.2222222   0.3257651), wk =   0.0400000
        k(   38) = (   0.1666667   0.1666667   0.3257651), wk =   0.0400000
        k(   39) = (   0.1111111   0.1111111   0.3257651), wk =   0.0400000
        k(   40) = (   0.0555556   0.0555556   0.3257651), wk =   0.0400000
        k(   41) = (   0.0000000   0.0000000   0.3257651), wk =   0.0400000
        k(   42) = (   0.0000000   0.5000000   0.0000000), wk =   0.0400000
        k(   43) = (   0.0000000   0.5000000   0.0814413), wk =   0.0400000
        k(   44) = (   0.0000000   0.5000000   0.1628825), wk =   0.0400000
        k(   45) = (   0.0000000   0.5000000   0.2443238), wk =   0.0400000
        k(   46) = (   0.0000000   0.5000000   0.3257651), wk =   0.0400000
        k(   47) = (   0.5000000   0.5000000   0.0000000), wk =   0.0400000
        k(   48) = (   0.5000000   0.5000000   0.1085884), wk =   0.0400000
        k(   49) = (   0.5000000   0.5000000   0.2171767), wk =   0.0400000
        k(   50) = (   0.5000000   0.5000000   0.3257651), wk =   0.0400000

                       cryst. coord.
        k(    1) = (   0.0000000   0.0000000   0.0000000), wk =   0.0400000
        k(    2) = (   0.0000000   0.1000000   0.0000000), wk =   0.0400000
        k(    3) = (   0.0000000   0.2000000   0.0000000), wk =   0.0400000
        k(    4) = (   0.0000000   0.3000000   0.0000000), wk =   0.0400000
        k(    5) = (   0.0000000   0.4000000   0.0000000), wk =   0.0400000
        k(    6) = (   0.0000000   0.5000000   0.0000000), wk =   0.0400000
        k(    7) = (   0.1000000   0.5000000   0.0000000), wk =   0.0400000
        k(    8) = (   0.2000000   0.5000000   0.0000000), wk =   0.0400000
        k(    9) = (   0.3000000   0.5000000   0.0000000), wk =   0.0400000
        k(   10) = (   0.4000000   0.5000000   0.0000000), wk =   0.0400000
        k(   11) = (   0.5000000   0.5000000   0.0000000), wk =   0.0400000
        k(   12) = (   0.4285714   0.4285714   0.0000000), wk =   0.0400000
        k(   13) = (   0.3571429   0.3571429   0.0000000), wk =   0.0400000
        k(   14) = (   0.2857143   0.2857143   0.0000000), wk =   0.0400000
        k(   15) = (   0.2142857   0.2142857   0.0000000), wk =   0.0400000
        k(   16) = (   0.1428571   0.1428571   0.0000000), wk =   0.0400000
        k(   17) = (   0.0714286   0.0714286   0.0000000), wk =   0.0400000
        k(   18) = (   0.0000000   0.0000000   0.0000000), wk =   0.0400000
        k(   19) = (   0.0000000   0.0000000   0.1666667), wk =   0.0400000
        k(   20) = (   0.0000000   0.0000000   0.3333333), wk =   0.0400000
        k(   21) = (   0.0000000   0.0000000   0.5000000), wk =   0.0400000
        k(   22) = (   0.0000000   0.1000000   0.5000000), wk =   0.0400000
        k(   23) = (   0.0000000   0.2000000   0.5000000), wk =   0.0400000
        k(   24) = (   0.0000000   0.3000000   0.5000000), wk =   0.0400000
        k(   25) = (   0.0000000   0.4000000   0.5000000), wk =   0.0400000
        k(   26) = (   0.0000000   0.5000000   0.5000000), wk =   0.0400000
        k(   27) = (   0.0833333   0.5000000   0.5000000), wk =   0.0400000
        k(   28) = (   0.1666667   0.5000000   0.5000000), wk =   0.0400000
        k(   29) = (   0.2500000   0.5000000   0.5000000), wk =   0.0400000
        k(   30) = (   0.3333333   0.5000000   0.5000000), wk =   0.0400000
        k(   31) = (   0.4166667   0.5000000   0.5000000), wk =   0.0400000
        k(   32) = (   0.5000000   0.5000000   0.5000000), wk =   0.0400000
        k(   33) = (   0.4444444   0.4444444   0.5000000), wk =   0.0400000
        k(   34) = (   0.3888889   0.3888889   0.5000000), wk =   0.0400000
        k(   35) = (   0.3333333   0.3333333   0.5000000), wk =   0.0400000
        k(   36) = (   0.2777778   0.2777778   0.5000000), wk =   0.0400000
        k(   37) = (   0.2222222   0.2222222   0.5000000), wk =   0.0400000
        k(   38) = (   0.1666667   0.1666667   0.5000000), wk =   0.0400000
        k(   39) = (   0.1111111   0.1111111   0.5000000), wk =   0.0400000
        k(   40) = (   0.0555556   0.0555556   0.5000000), wk =   0.0400000
        k(   41) = (   0.0000000   0.0000000   0.5000000), wk =   0.0400000
        k(   42) = (   0.0000000   0.5000000   0.0000000), wk =   0.0400000
        k(   43) = (   0.0000000   0.5000000   0.1250000), wk =   0.0400000
        k(   44) = (   0.0000000   0.5000000   0.2500000), wk =   0.0400000
        k(   45) = (   0.0000000   0.5000000   0.3750000), wk =   0.0400000
        k(   46) = (   0.0000000   0.5000000   0.5000000), wk =   0.0400000
        k(   47) = (   0.5000000   0.5000000   0.0000000), wk =   0.0400000
        k(   48) = (   0.5000000   0.5000000   0.1666667), wk =   0.0400000
        k(   49) = (   0.5000000   0.5000000   0.3333333), wk =   0.0400000
        k(   50) = (   0.5000000   0.5000000   0.5000000), wk =   0.0400000

     Dense  grid:    17783 G-vectors     FFT dimensions: (  30,  30,  45)

     Smooth grid:    12743 G-vectors     FFT dimensions: (  25,  25,  40)

     Estimated max dynamical RAM per process >      30.27Mb

     The potential is recalculated from file :
     ./pwscf.save/charge-density.dat

     Starting wfc are   18 randomized atomic wfcs

     Band Structure Calculation
     Davidson diagonalization with overlap

     Computing kpt #:     1
     total cpu time spent up to now is        1.1 secs

     Computing kpt #:     2
     total cpu time spent up to now is        1.4 secs

     Computing kpt #:     3
     total cpu time spent up to now is        1.7 secs

     Computing kpt #:     4
     total cpu time spent up to now is        2.0 secs

     Computing kpt #:     5
     total cpu time spent up to now is        2.4 secs

     Computing kpt #:     6
     total cpu time spent up to now is        2.7 secs

     Computing kpt #:     7
     total cpu time spent up to now is        3.0 secs

     Computing kpt #:     8
     total cpu time spent up to now is        3.4 secs

     Computing kpt #:     9
     total cpu time spent up to now is        3.7 secs

     Computing kpt #:    10
     total cpu time spent up to now is        4.1 secs

     Computing kpt #:    11
     total cpu time spent up to now is        4.5 secs

     Computing kpt #:    12
     total cpu time spent up to now is        4.9 secs

     Computing kpt #:    13
     total cpu time spent up to now is        5.2 secs

     Computing kpt #:    14
     total cpu time spent up to now is        5.6 secs

     Computing kpt #:    15
     total cpu time spent up to now is        6.0 secs

     Computing kpt #:    16
     total cpu time spent up to now is        6.7 secs

     Computing kpt #:    17
     total cpu time spent up to now is        7.4 secs

     Computing kpt #:    18
     total cpu time spent up to now is        7.7 secs

     Computing kpt #:    19
     total cpu time spent up to now is        8.2 secs

     Computing kpt #:    20
     total cpu time spent up to now is        8.6 secs

     Computing kpt #:    21
     total cpu time spent up to now is        8.9 secs

     Computing kpt #:    22
     total cpu time spent up to now is        9.3 secs

     Computing kpt #:    23
     total cpu time spent up to now is        9.7 secs

     Computing kpt #:    24
     total cpu time spent up to now is       10.1 secs

     Computing kpt #:    25
     total cpu time spent up to now is       10.4 secs

     Computing kpt #:    26
     total cpu time spent up to now is       10.7 secs

     Computing kpt #:    27
     total cpu time spent up to now is       11.1 secs

     Computing kpt #:    28
     total cpu time spent up to now is       11.4 secs

     Computing kpt #:    29
     total cpu time spent up to now is       11.8 secs

     Computing kpt #:    30
     total cpu time spent up to now is       12.1 secs

     Computing kpt #:    31
     total cpu time spent up to now is       12.5 secs

     Computing kpt #:    32
     total cpu time spent up to now is       12.8 secs

     Computing kpt #:    33
     total cpu time spent up to now is       13.1 secs

     Computing kpt #:    34
     total cpu time spent up to now is       13.4 secs

     Computing kpt #:    35
     total cpu time spent up to now is       13.7 secs

     Computing kpt #:    36
     total cpu time spent up to now is       14.1 secs

     Computing kpt #:    37
     total cpu time spent up to now is       14.4 secs

     Computing kpt #:    38
     total cpu time spent up to now is       14.7 secs

     Computing kpt #:    39
     total cpu time spent up to now is       15.1 secs

     Computing kpt #:    40
     total cpu time spent up to now is       15.4 secs

     Computing kpt #:    41
     total cpu time spent up to now is       15.8 secs

     Computing kpt #:    42
     total cpu time spent up to now is       16.1 secs

     Computing kpt #:    43
     total cpu time spent up to now is       16.4 secs

     Computing kpt #:    44
     total cpu time spent up to now is       16.7 secs

     Computing kpt #:    45
     total cpu time spent up to now is       17.0 secs

     Computing kpt #:    46
     total cpu time spent up to now is       17.4 secs

     Computing kpt #:    47
     total cpu time spent up to now is       17.8 secs

     Computing kpt #:    48
     total cpu time spent up to now is       18.1 secs

     Computing kpt #:    49
     total cpu time spent up to now is       18.5 secs

     Computing kpt #:    50
     total cpu time spent up to now is       18.8 secs

     ethr =  3.85E-10,  avg # of iterations = 15.2

     total cpu time spent up to now is       18.8 secs

     End of band structure calculation

          k = 0.0000 0.0000 0.0000 (  1563 PWs)   bands (ev):

    -5.2460  -5.1345  -5.1001  -4.9985  -4.9985  -4.9392  -4.8350  -4.7490
    -4.7255  -4.7255   0.3469   6.4789   7.0161  14.1999  14.1999  17.5462
    17.6381

          k = 0.0000 0.1000 0.0000 (  1577 PWs)   bands (ev):

    -5.2233  -5.1177  -5.0827  -5.0054  -4.9911  -4.9332  -4.8431  -4.7617
    -4.7482  -4.7310   0.4948   6.5769   7.1947  12.7085  14.3733  17.6821
    18.2204

          k = 0.0000 0.2000 0.0000 (  1597 PWs)   bands (ev):

    -5.1773  -5.0570  -5.0506  -5.0215  -4.9692  -4.9046  -4.8641  -4.8087
    -4.7957  -4.7481   0.9426   6.8333   7.7210  10.5263  14.8841  15.9687
    16.6289

          k = 0.0000 0.3000 0.0000 (  1604 PWs)   bands (ev):

    -5.1365  -5.0389  -5.0360  -4.9568  -4.9359  -4.8883  -4.8856  -4.8503
    -4.8386  -4.7750   1.6976   6.8598   8.5705   8.9590  13.7938  14.6077
    15.7053

          k = 0.0000 0.4000 0.0000 (  1604 PWs)   bands (ev):

    -5.1012  -5.0484  -5.0355  -4.9585  -4.9030  -4.8952  -4.8774  -4.8608
    -4.8106  -4.8050   2.7601   5.6545   9.1589   9.7123  11.8782  12.7570
    16.7924

          k = 0.0000 0.5000 0.0000 (  1596 PWs)   bands (ev):

    -5.0709  -5.0708  -5.0106  -5.0105  -4.9003  -4.9002  -4.8519  -4.8518
    -4.8050  -4.8048   4.1089   4.1089  10.3009  10.3009  11.1166  11.1166
    18.0704

          k = 0.1000 0.5000 0.0000 (  1600 PWs)   bands (ev):

    -5.0477  -5.0476  -5.0372  -5.0371  -4.9198  -4.9197  -4.8346  -4.8345
    -4.7898  -4.7897   4.2558   4.2558  10.4049  10.4050  11.2558  11.2558
    16.3622

          k = 0.2000 0.5000 0.0000 (  1580 PWs)   bands (ev):

    -5.0922  -5.0922  -5.0346  -5.0346  -4.9071  -4.9071  -4.8033  -4.8033
    -4.7641  -4.7640   4.6976   4.6976  10.6605  10.6605  11.6606  11.6606
    14.1484

          k = 0.3000 0.5000 0.0000 (  1582 PWs)   bands (ev):

    -5.1486  -5.1486  -5.0798  -5.0798  -4.8268  -4.8267  -4.7761  -4.7761
    -4.7351  -4.7349   5.4368   5.4368  10.6075  10.6075  12.2841  12.2841
    12.6064

          k = 0.4000 0.5000 0.0000 (  1584 PWs)   bands (ev):

    -5.1897  -5.1897  -5.1216  -5.1216  -4.7761  -4.7760  -4.7587  -4.7587
    -4.6902  -4.6901   6.4743   6.4743   9.3328   9.3328  12.6238  12.6238
    12.9947

          k = 0.5000 0.5000 0.0000 (  1592 PWs)   bands (ev):

    -5.2047  -5.2047  -5.1376  -5.1376  -4.7650  -4.7650  -4.7529  -4.7529
    -4.6647  -4.6646   7.7685   7.7685   7.8264   7.8264  12.9009  12.9009
    13.3826

          k = 0.4286 0.4286 0.0000 (  1585 PWs)   bands (ev):

    -5.1945  -5.1841  -5.1214  -5.1212  -4.7766  -4.7726  -4.7662  -4.7511
    -4.6974  -4.6882   5.8494   7.8622   7.9553   9.9844  12.2103  12.5288
    13.0920

          k = 0.3571 0.3571 0.0000 (  1577 PWs)   bands (ev):

    -5.1662  -5.1249  -5.0802  -5.0760  -4.8075  -4.8028  -4.7939  -4.7870
    -4.7530  -4.7473   4.1748   7.8978   8.5036  11.0913  11.2562  12.3371
    13.6555

          k = 0.2857 0.2857 0.0000 (  1575 PWs)   bands (ev):

    -5.1251  -5.0379  -5.0354  -5.0146  -4.9099  -4.8542  -4.8434  -4.8402
    -4.8235  -4.7421   2.7936   7.7283   9.3803   9.7322  10.8942  14.5629
    14.6505

          k = 0.2143 0.2143 0.0000 (  1609 PWs)   bands (ev):

    -5.0793  -5.0392  -5.0381  -4.9565  -4.9404  -4.9303  -4.9093  -4.8530
    -4.8366  -4.7363   1.7179   7.3087   8.5926  10.5384  11.2960  15.7696
    16.0821

          k = 0.1429 0.1429 0.0000 (  1601 PWs)   bands (ev):

    -5.1486  -5.0793  -5.0379  -5.0242  -4.9564  -4.9280  -4.8609  -4.8284
    -4.7973  -4.7309   0.9531   6.8734   7.7337  11.9122  12.2326  17.2064
    17.4544

          k = 0.0714 0.0714 0.0000 (  1581 PWs)   bands (ev):

    -5.2207  -5.1190  -5.0807  -5.0092  -4.9877  -4.9344  -4.8434  -4.7622
    -4.7532  -4.7269   0.4977   6.5800   7.1982  13.3541  13.4330  18.6285
    18.6804

          k = 0.0000 0.0000 0.0000 (  1563 PWs)   bands (ev):

    -5.2460  -5.1345  -5.1001  -4.9985  -4.9985  -4.9392  -4.8350  -4.7490
    -4.7255  -4.7255   0.3469   6.4789   7.0161  14.1999  14.1999  17.5462
    17.6381

          k = 0.0000 0.0000 0.1086 (  1575 PWs)   bands (ev):

    -5.2364  -5.1193  -5.1102  -4.9814  -4.9814  -4.9502  -4.8292  -4.7548
    -4.7448  -4.7448   0.5218   4.7833   9.0312  14.4110  14.4110  17.6614
    17.7443

          k = 0.0000 0.0000 0.2172 (  1583 PWs)   bands (ev):

    -5.2105  -5.1368  -5.0793  -4.9806  -4.9328  -4.9328  -4.8135  -4.7975
    -4.7975  -4.7710   1.0500   3.1858  11.5742  15.0318  15.0318  17.0616
    17.3206

          k = 0.0000 0.0000 0.3258 (  1588 PWs)   bands (ev):

    -5.1737  -5.1736  -5.0278  -5.0276  -4.8662  -4.8662  -4.8661  -4.8661
    -4.7926  -4.7924   1.9378   1.9378  14.3334  14.3334  16.0251  16.0251
    16.0251

          k = 0.0000 0.1000 0.3258 (  1584 PWs)   bands (ev):

    -5.1550  -5.1548  -5.0216  -5.0215  -4.8789  -4.8788  -4.8742  -4.8741
    -4.7884  -4.7883   2.0899   2.0900  13.7582  13.7582  15.1091  15.1091
    16.1772

          k = 0.0000 0.2000 0.3258 (  1582 PWs)   bands (ev):

    -5.1173  -5.1172  -5.0149  -5.0148  -4.9098  -4.9098  -4.8733  -4.8733
    -4.7807  -4.7807   2.5462   2.5463  11.6821  11.6821  15.2291  15.2291
    16.6156

          k = 0.0000 0.3000 0.3258 (  1584 PWs)   bands (ev):

    -5.0894  -5.0893  -5.0371  -5.0371  -4.9451  -4.9451  -4.8220  -4.8219
    -4.7734  -4.7734   3.3043   3.3044   9.5339   9.5339  15.7478  15.7478
    17.2774

          k = 0.0000 0.4000 0.3258 (  1586 PWs)   bands (ev):

    -5.0782  -5.0782  -5.0655  -5.0655  -4.9728  -4.9728  -4.7683  -4.7683
    -4.7574  -4.7574   4.3430   4.3430   7.6248   7.6248  16.3433  16.3433
    17.9998

          k = 0.0000 0.5000 0.3258 (  1592 PWs)   bands (ev):

    -5.0848  -5.0848  -5.0678  -5.0677  -4.9829  -4.9829  -4.7668  -4.7668
    -4.7306  -4.7305   5.2765   5.2765   6.3964   6.3964  16.6486  16.6486
    18.3695

          k = 0.0833 0.5000 0.3258 (  1584 PWs)   bands (ev):

    -5.0783  -5.0783  -5.0469  -5.0467  -4.9895  -4.9895  -4.7811  -4.7811
    -4.7317  -4.7316   5.3647   5.3648   6.5138   6.5138  16.5624  16.5624
    17.3454

          k = 0.1667 0.5000 0.3258 (  1592 PWs)   bands (ev):

    -5.0630  -5.0629  -5.0065  -5.0065  -4.9884  -4.9883  -4.8209  -4.8209
    -4.7346  -4.7345   5.6327   5.6327   6.8603   6.8603  15.5008  15.5008
    15.9777

          k = 0.2500 0.5000 0.3258 (  1588 PWs)   bands (ev):

    -5.0416  -5.0415  -5.0281  -5.0281  -4.9131  -4.9130  -4.8754  -4.8754
    -4.7334  -4.7333   6.0882   6.0882   7.4191   7.4191  13.6226  13.6226
    14.7251

          k = 0.3333 0.5000 0.3258 (  1596 PWs)   bands (ev):

    -5.0478  -5.0477  -5.0180  -5.0179  -4.9307  -4.9307  -4.8566  -4.8565
    -4.7154  -4.7153   6.7368   6.7369   8.1594   8.1595  11.8899  11.8899
    13.3107

          k = 0.4167 0.5000 0.3258 (  1596 PWs)   bands (ev):

    -5.0588  -5.0587  -4.9985  -4.9984  -4.9737  -4.9736  -4.8377  -4.8376
    -4.6814  -4.6813   7.5534   7.5534   9.0053   9.0053  10.3993  10.3993
    12.0279

          k = 0.5000 0.5000 0.3258 (  1624 PWs)   bands (ev):

    -5.0619  -5.0617  -4.9910  -4.9910  -4.9909  -4.9909  -4.8360  -4.8358
    -4.6650  -4.6648   8.1726   8.1726   9.5515   9.5515   9.5515   9.5515
    11.3327

          k = 0.4444 0.4444 0.3258 (  1596 PWs)   bands (ev):

    -5.0598  -5.0597  -4.9882  -4.9881  -4.9845  -4.9844  -4.8367  -4.8365
    -4.6803  -4.6802   7.4997   7.4998   9.6593   9.6594   9.7423   9.7424
    12.0425

          k = 0.3889 0.3889 0.3258 (  1590 PWs)   bands (ev):

    -5.0554  -5.0554  -4.9814  -4.9813  -4.9659  -4.9659  -4.8396  -4.8395
    -4.7246  -4.7245   6.3539   6.3540   9.9791   9.9792  10.0464  10.0464
    13.5506

          k = 0.3333 0.3333 0.3258 (  1586 PWs)   bands (ev):

    -5.0484  -5.0484  -4.9737  -4.9736  -4.9388  -4.9388  -4.8441  -4.8440
    -4.7880  -4.7879   5.2373   5.2373  10.4698  10.4698  10.5007  10.5007
    15.2481

          k = 0.2778 0.2778 0.3258 (  1584 PWs)   bands (ev):

    -5.0376  -5.0376  -4.9752  -4.9752  -4.9161  -4.9160  -4.8518  -4.8517
    -4.8431  -4.8430   4.2515   4.2515  11.0415  11.0415  11.2087  11.2088
    16.3741

          k = 0.2222 0.2222 0.3258 (  1592 PWs)   bands (ev):

    -5.0237  -5.0237  -5.0099  -5.0099  -4.9118  -4.9117  -4.8839  -4.8838
    -4.8265  -4.8265   3.4277   3.4278  11.7619  11.7620  12.0846  12.0846
    16.2133

          k = 0.1667 0.1667 0.3258 (  1574 PWs)   bands (ev):

    -5.0699  -5.0698  -5.0136  -5.0135  -4.9113  -4.9113  -4.8833  -4.8832
    -4.8052  -4.8051   2.7793   2.7793  12.6086  12.6086  13.1049  13.1050
    15.8129

          k = 0.1111 0.1111 0.3258 (  1588 PWs)   bands (ev):

    -5.1250  -5.1249  -5.0159  -5.0158  -4.8980  -4.8979  -4.8753  -4.8752
    -4.7927  -4.7926   2.3128   2.3128  13.4961  13.4961  14.2336  14.2336
    15.5765

          k = 0.0556 0.0556 0.3258 (  1588 PWs)   bands (ev):

    -5.1614  -5.1612  -5.0239  -5.0238  -4.8768  -4.8767  -4.8686  -4.8685
    -4.7907  -4.7906   2.0317   2.0317  14.1520  14.1520  15.3711  15.3711
    15.7202

          k = 0.0000 0.0000 0.3258 (  1588 PWs)   bands (ev):

    -5.1737  -5.1736  -5.0278  -5.0276  -4.8662  -4.8662  -4.8661  -4.8661
    -4.7926  -4.7924   1.9378   1.9378  14.3334  14.3334  16.0251  16.0251
    16.0251

          k = 0.0000 0.5000 0.0000 (  1596 PWs)   bands (ev):

    -5.0709  -5.0708  -5.0106  -5.0105  -4.9003  -4.9002  -4.8519  -4.8518
    -4.8050  -4.8048   4.1089   4.1089  10.3009  10.3009  11.1166  11.1166
    18.0704

          k = 0.0000 0.5000 0.0814 (  1594 PWs)   bands (ev):

    -5.0705  -5.0704  -5.0244  -5.0243  -4.9230  -4.9230  -4.8286  -4.8286
    -4.7910  -4.7909   4.2073   4.2073   9.2007   9.2007  12.3725  12.3725
    18.1090

          k = 0.0000 0.5000 0.1629 (  1596 PWs)   bands (ev):

    -5.0699  -5.0698  -5.0520  -5.0519  -4.9540  -4.9539  -4.7970  -4.7970
    -4.7630  -4.7629   4.4962   4.4962   7.9572   7.9572  14.0642  14.0642
    18.2086

          k = 0.0000 0.5000 0.2443 (  1590 PWs)   bands (ev):

    -5.0767  -5.0766  -5.0675  -5.0674  -4.9754  -4.9753  -4.7747  -4.7747
    -4.7394  -4.7393   4.9397   4.9397   6.9293   6.9293  15.7298  15.7298
    18.3195

          k = 0.0000 0.5000 0.3258 (  1592 PWs)   bands (ev):

    -5.0848  -5.0848  -5.0678  -5.0677  -4.9829  -4.9829  -4.7668  -4.7668
    -4.7306  -4.7305   5.2765   5.2765   6.3964   6.3964  16.6486  16.6486
    18.3695

          k = 0.5000 0.5000 0.0000 (  1592 PWs)   bands (ev):

    -5.2047  -5.2047  -5.1376  -5.1376  -4.7650  -4.7650  -4.7529  -4.7529
    -4.6647  -4.6646   7.7685   7.7685   7.8264   7.8264  12.9009  12.9009
    13.3826

          k = 0.5000 0.5000 0.1086 (  1580 PWs)   bands (ev):

    -5.1771  -5.1771  -5.1214  -5.1214  -4.7861  -4.7861  -4.7796  -4.7795
    -4.6645  -4.6644   7.8994   7.8994   7.9774   7.9774  12.1302  12.1302
    12.6651

          k = 0.5000 0.5000 0.2172 (  1572 PWs)   bands (ev):

    -5.1001  -5.1001  -5.0843  -5.0842  -4.8745  -4.8745  -4.8139  -4.8138
    -4.6644  -4.6643   8.0699   8.0699   8.5875   8.5875  10.7905  10.7905
    11.7205

          k = 0.5000 0.5000 0.3258 (  1624 PWs)   bands (ev):

    -5.0619  -5.0617  -4.9910  -4.9910  -4.9909  -4.9909  -4.8360  -4.8358
    -4.6650  -4.6648   8.1726   8.1726   9.5515   9.5515   9.5515   9.5515
    11.3327

     Writing output data file pwscf.save

     init_run     :      0.78s CPU      0.61s WALL (       1 calls)
     electrons    :     33.22s CPU     18.00s WALL (       1 calls)

     Called by init_run:
     wfcinit      :      0.00s CPU      0.00s WALL (       1 calls)
     wfcinit:atom :      0.06s CPU      0.07s WALL (      50 calls)
     wfcinit:wfcr :      2.14s CPU      1.20s WALL (      50 calls)
     potinit      :      0.05s CPU      0.05s WALL (       1 calls)

     Called by electrons:
     c_bands      :     33.22s CPU     17.99s WALL (       1 calls)
     v_of_rho     :      0.05s CPU      0.04s WALL (       1 calls)
     v_h          :      0.00s CPU      0.00s WALL (       1 calls)
     v_xc         :      0.05s CPU      0.04s WALL (       1 calls)
     newd         :      0.06s CPU      0.12s WALL (       1 calls)

     Called by c_bands:
     init_us_2    :      0.14s CPU      0.08s WALL (      50 calls)
     cegterg      :     29.61s CPU     16.05s WALL (      53 calls)

     Called by sum_band:

     Called by *egterg:
     h_psi        :     19.67s CPU     10.88s WALL (     861 calls)
     s_psi        :      0.80s CPU      0.33s WALL (     861 calls)
     g_psi        :      0.36s CPU      0.16s WALL (     758 calls)
     cdiaghg      :      5.34s CPU      3.51s WALL (     808 calls)
     cegterg:over :      1.73s CPU      0.93s WALL (     758 calls)
     cegterg:upda :      2.03s CPU      0.76s WALL (     758 calls)
     cegterg:last :      0.94s CPU      0.29s WALL (     163 calls)

     Called by h_psi:
     h_psi:pot    :     19.53s CPU     10.76s WALL (     861 calls)
     h_psi:calbec :      0.58s CPU      0.49s WALL (     861 calls)
     vloc_psi     :     18.28s CPU      9.87s WALL (     861 calls)
     add_vuspsi   :      0.66s CPU      0.37s WALL (     861 calls)

     General routines
     calbec       :      0.55s CPU      0.48s WALL (     861 calls)
     fft          :      0.02s CPU      0.02s WALL (      13 calls)
     ffts         :      0.00s CPU      0.00s WALL (       1 calls)
     fftw         :     15.42s CPU      8.32s WALL (   18452 calls)
     interpolate  :      0.00s CPU      0.00s WALL (       1 calls)
     davcio       :      0.00s CPU      0.01s WALL (      50 calls)

     Parallel routines
     fft_scatter  :      1.56s CPU      0.84s WALL (   18466 calls)

     PWSCF        :    34.41s CPU        19.04s WALL


   This run was terminated on:  16:47:45  26Feb2021            

=------------------------------------------------------------------------------=
   JOB DONE.
=------------------------------------------------------------------------------=
