element =  C
struct =  diamond
nbands =  -4
path =  LGXUG
kpts =  (8,8,8)

  ___ ___ ___ _ _ _  
 |   |   |_  | | | | 
 | | | | | . | | | | 
 |__ |  _|___|_____|  1.3.1b1
 |___|_|             

User:   inukai@DESKTOP-12SE80T
Date:   Tue Feb  2 19:04:49 2021
Arch:   x86_64
Pid:    32200
Python: 3.6.9
gpaw:   /usr/lib/python3/dist-packages/gpaw
_gpaw:  /usr/lib/python3/dist-packages/_gpaw.cpython-36m-x86_64-linux-gnu.so
ase:    /home/inukai/hotcent/ase-3.19.3/ase (version 3.19.3)
numpy:  /home/inukai/.local/lib/python3.6/site-packages/numpy (version 1.19.5)
scipy:  /home/inukai/.local/lib/python3.6/site-packages/scipy (version 1.5.4)
units:  Angstrom and eV
cores:  1

Input parameters:
  kpts: [8 8 8]
  maxiter: 200
  mixer: {backend: pulay,
          beta: 0.05,
          method: separate,
          nmaxold: 8,
          weight: 100}
  mode: {ecut: 400.0,
         name: pw}
  occupations: {name: fermi-dirac,
                width: 0.02}
  spinpol: False
  xc: PBE

System changes: positions, numbers, cell, pbc, initial_charges, initial_magmoms 

Initialize ...

C-setup:
  name: Carbon
  id: 4aa54d4b901d75f77cc0ea3eec22967b
  Z: 6
  valence: 4
  core: 2
  charge: 0.0
  file: /usr/share/gpaw-setups/C.PBE.gz
  cutoffs: 0.64(comp), 1.14(filt), 1.14(core), lmax=2
  valence states:
                energy  radius
    2s(2.00)   -13.751   0.635
    2p(2.00)    -5.284   0.635
    *s          13.461   0.635
    *p          21.927   0.635
    *d           0.000   0.635

  Using partial waves for C as LCAO basis

Reference energy: -2055.256231

Spin-paired calculation

Occupation numbers:
  Fermi-Dirac: width=0.0200 eV

Convergence criteria:
  Maximum total energy change: 0.0005 eV / electron
  Maximum integral of absolute density change: 0.0001 electrons
  Maximum integral of absolute eigenstate change: 4e-08 eV^2
  Maximum number of iterations: 200

Symmetries present (total): 24

  ( 1  0  0)  ( 1  0  0)  ( 1  0 -1)  ( 1  0 -1)  ( 1 -1  0)  ( 1 -1  0)
  ( 0  1  0)  ( 0  0  1)  ( 0  1 -1)  ( 0  0 -1)  ( 0 -1  1)  ( 0 -1  0)
  ( 0  0  1)  ( 0  1  0)  ( 0  0 -1)  ( 0  1 -1)  ( 0 -1  0)  ( 0 -1  1)

  ( 0  1  0)  ( 0  1  0)  ( 0  1 -1)  ( 0  1 -1)  ( 0  0  1)  ( 0  0  1)
  ( 1  0  0)  ( 0  0  1)  ( 1  0 -1)  ( 0  0 -1)  ( 1  0  0)  ( 0  1  0)
  ( 0  0  1)  ( 1  0  0)  ( 0  0 -1)  ( 1  0 -1)  ( 0  1  0)  ( 1  0  0)

  ( 0  0 -1)  ( 0  0 -1)  ( 0 -1  1)  ( 0 -1  1)  ( 0 -1  0)  ( 0 -1  0)
  ( 1  0 -1)  ( 0  1 -1)  ( 1 -1  0)  ( 0 -1  0)  ( 1 -1  0)  ( 0 -1  1)
  ( 0  1 -1)  ( 1  0 -1)  ( 0 -1  0)  ( 1 -1  0)  ( 0 -1  1)  ( 1 -1  0)

  (-1  1  0)  (-1  1  0)  (-1  0  1)  (-1  0  1)  (-1  0  0)  (-1  0  0)
  (-1  0  1)  (-1  0  0)  (-1  1  0)  (-1  0  0)  (-1  1  0)  (-1  0  1)
  (-1  0  0)  (-1  0  1)  (-1  0  0)  (-1  1  0)  (-1  0  1)  (-1  1  0)
Note: your k-points are not as symmetric as your crystal!

512 k-points: 8 x 8 x 8 Monkhorst-Pack grid
60 k-points in the irreducible part of the Brillouin zone
       k-points in crystal coordinates                weights
   0:     0.06250000    0.06250000   -0.06250000          6/512
   1:     0.06250000    0.06250000    0.06250000          2/512
   2:     0.18750000   -0.06250000   -0.06250000          6/512
   3:     0.18750000    0.06250000   -0.18750000         12/512
   4:     0.18750000    0.06250000   -0.06250000         12/512
   5:     0.18750000    0.06250000    0.06250000          6/512
   6:     0.18750000    0.18750000   -0.18750000          6/512
   7:     0.18750000    0.18750000   -0.06250000          6/512
   8:     0.18750000    0.18750000    0.06250000          6/512
   9:     0.18750000    0.18750000    0.18750000          2/512
          ...
  59:     0.43750000    0.43750000    0.43750000          2/512

Wave functions: Plane wave expansion
  Cutoff energy: 400.000 eV
  Number of coefficients (min, max): 187, 216
  Using FFTW library
  Eigensolver: None  MatrixOperator buffer_size: default value or 
                              see value of nblock in input file
Diagonalizer layout: Serial LAPACKOrthonormalizer layout: Serial LAPACK 

Davidson(niter=1, smin=None, normalize=True) 

Densities:
  Coarse grid: 10*10*10 grid
  Fine grid: 20*20*20 grid
  Total Charge: 0.000000 

Density mixing:
  Method: separate
  Backend: pulay
  Linear mixing parameter: 0.05
  Mixing with 8 old densities
  Damping of long wave oscillations: 100 

Hamiltonian:
  XC and Coulomb potentials evaluated on a 20*20*20 grid
  Using the PBE Exchange-Correlation functional
 

Memory estimate:
  Process memory now: 921.70 MiB
  Calculator: 3.94 MiB
    Density: 0.46 MiB
      Arrays: 0.20 MiB
      Localized functions: 0.13 MiB
      Mixer: 0.12 MiB
    Hamiltonian: 0.13 MiB
      Arrays: 0.13 MiB
      XC: 0.00 MiB
      Poisson: 0.00 MiB
      vbar: 0.00 MiB
    Wavefunctions: 3.36 MiB
      Arrays psit_nG: 1.58 MiB
      Eigensolver: 0.05 MiB
      Projections: 0.19 MiB
      Projectors: 1.32 MiB
      Overlap op: 0.03 MiB
      PW-descriptor: 0.18 MiB

Total number of cores used: 1

Number of atoms: 2
Number of atomic orbitals: 8
Number of bands in calculation: 8
Bands to converge: occupied states only
Number of valence electrons: 8

... initialized

Initializing position-dependent things.

Density initialized from atomic densities
Creating initial wave functions:
  8 bands from LCAO basis set

                   
                   
                   
                   
          C        
       C           
                   
                   
                   
                   

Positions:
   0 C      0.000000    0.000000    0.000000
   1 C      0.892500    0.892500    0.892500

Unit cell:
           periodic     x           y           z      points  spacing
  1. axis:    yes    0.000000    1.785000    1.785000    10     0.2061
  2. axis:    yes    1.785000    0.000000    1.785000    10     0.2061
  3. axis:    yes    1.785000    1.785000    0.000000    10     0.2061

  Lengths:   2.524371   2.524371   2.524371
  Angles:   60.000000  60.000000  60.000000

Effective grid spacing dv^(1/3) = 0.2249

                     log10-error:    total        iterations:
           time      wfs    density  energy       fermi  poisson
iter:   1  19:04:53  +1.78   +inf   -18.346106    0             
iter:   2  19:04:54  +0.02   +inf   -18.406529    0             
iter:   3  19:04:54  -1.40   +inf   -18.409644    0             
iter:   4  19:04:55  -2.16  -0.83   -18.342666    0             
iter:   5  19:04:56  -0.09  -0.85   -17.921635    1             
iter:   6  19:04:57  -1.37  -1.75   -17.926123    0             
iter:   7  19:04:58  -1.90  -1.81   -17.925022    0             
iter:   8  19:04:59  -2.76  -2.04   -17.925742    0             
iter:   9  19:04:59  -4.07  -2.84   -17.925774    0             
iter:  10  19:05:00  -3.82  -2.76   -17.925799    0             
iter:  11  19:05:01  -5.04  -3.54   -17.925799    0             
iter:  12  19:05:02  -6.09  -3.98   -17.925798    0             
iter:  13  19:05:03  -6.59  -4.13   -17.925798    0             
iter:  14  19:05:04  -7.64  -4.80   -17.925798    0             

Converged after 14 iterations.

Dipole moment: (-1.861615, -1.861615, -1.861615) |e|*Ang

Energy contributions relative to reference atoms: (reference = -2055.256231)

Kinetic:        +14.727914
Potential:      -13.942090
External:        +0.000000
XC:             -18.939741
Entropy (-ST):   -0.000000
Local:           +0.228120
--------------------------
Free energy:    -17.925798
Extrapolated:   -17.925798

Fermi level: 12.49674

Warning: Showing only first 2 kpts
 Kpt  Band  Eigenvalues  Occupancy
  0     2     10.97451    0.02344
  0     3     11.53998    0.02344
  0     4     17.69371    0.00000
  0     5     19.06267    0.00000

  1     2     11.90813    0.00781
  1     3     11.90813    0.00781
  1     4     17.90377    0.00000
  1     5     17.90377    0.00000


Input parameters:
  convergence: {bands: all}
  eigensolver: {name: cg,
                niter: 5}
  fixdensity: True
  kpts: {npoints: 50,
         path: LGXUG}
  nbands: -4
  symmetry: off

Initialize ...

C-setup:
  name: Carbon
  id: 4aa54d4b901d75f77cc0ea3eec22967b
  Z: 6
  valence: 4
  core: 2
  charge: 0.0
  file: /usr/share/gpaw-setups/C.PBE.gz
  cutoffs: 0.64(comp), 1.14(filt), 1.14(core), lmax=2
  valence states:
                energy  radius
    2s(2.00)   -13.751   0.635
    2p(2.00)    -5.284   0.635
    *s          13.461   0.635
    *p          21.927   0.635
    *d           0.000   0.635

  Using partial waves for C as LCAO basis

Reference energy: -2055.256231

Spin-paired calculation

Occupation numbers:
  Fixed Fermi level
  Fermi-Dirac: width=0.0200 eV

Convergence criteria:
  Maximum total energy change: 0.0005 eV / electron
  Maximum integral of absolute density change: 0.0001 electrons
  Maximum integral of absolute eigenstate change: 4e-08 eV^2
  Maximum number of iterations: 200

Symmetries present (total): 1

  ( 1  0  0)
  ( 0  1  0)
  ( 0  0  1)

50 k-points
50 k-points in the irreducible part of the Brillouin zone
       k-points in crystal coordinates                weights
   0:     0.50000000    0.50000000    0.50000000          1/50
   1:     0.45833333    0.45833333    0.45833333          1/50
   2:     0.41666667    0.41666667    0.41666667          1/50
   3:     0.37500000    0.37500000    0.37500000          1/50
   4:     0.33333333    0.33333333    0.33333333          1/50
   5:     0.29166667    0.29166667    0.29166667          1/50
   6:     0.25000000    0.25000000    0.25000000          1/50
   7:     0.20833333    0.20833333    0.20833333          1/50
   8:     0.16666667    0.16666667    0.16666667          1/50
   9:     0.12500000    0.12500000    0.12500000          1/50
          ...
  49:     0.00000000    0.00000000    0.00000000          1/50

Wave functions: Plane wave expansion
  Cutoff energy: 400.000 eV
  Number of coefficients (min, max): 181, 212
  Using FFTW library
  Eigensolver: None  MatrixOperator buffer_size: default value or 
                              see value of nblock in input file
Diagonalizer layout: Serial LAPACKOrthonormalizer layout: Serial LAPACK 

CG(niter=5, rtol=3.0e-01) 

No density mixing

Memory estimate:
  Process memory now: 975.12 MiB
  Calculator: 3.34 MiB
    Density: 0.46 MiB
      Arrays: 0.20 MiB
      Localized functions: 0.13 MiB
      Mixer: 0.12 MiB
    Hamiltonian: 0.13 MiB
      Arrays: 0.13 MiB
      XC: 0.00 MiB
      Poisson: 0.00 MiB
      vbar: 0.00 MiB
    Wavefunctions: 2.75 MiB
      Arrays psit_nG: 1.29 MiB
      Eigensolver: 0.04 MiB
      Projections: 0.16 MiB
      Projectors: 1.08 MiB
      Overlap op: 0.03 MiB
      PW-descriptor: 0.15 MiB

Total number of cores used: 1

Number of atoms: 2
Number of atomic orbitals: 8
Number of bands in calculation: 8
Bands to converge: all
Number of valence electrons: 8

... initialized

Initializing position-dependent things.

Creating initial wave functions:
  8 bands from LCAO basis set

                   
                   
                   
                   
          C        
       C           
                   
                   
                   
                   

Positions:
   0 C      0.000000    0.000000    0.000000
   1 C      0.892500    0.892500    0.892500

Unit cell:
           periodic     x           y           z      points  spacing
  1. axis:    yes    0.000000    1.785000    1.785000    10     0.2061
  2. axis:    yes    1.785000    0.000000    1.785000    10     0.2061
  3. axis:    yes    1.785000    1.785000    0.000000    10     0.2061

  Lengths:   2.524371   2.524371   2.524371
  Angles:   60.000000  60.000000  60.000000

Effective grid spacing dv^(1/3) = 0.2249

                     log10-error:    total        iterations:
           time      wfs    density  energy       fermi  poisson
iter:   1  19:05:08  +1.76           -8.968370    3             
iter:   2  19:05:10  +0.73           -9.025647    3             
iter:   3  19:05:12  -0.17           -9.029069    3             
iter:   4  19:05:13  -0.98           -9.029434    3             
iter:   5  19:05:15  -1.70           -9.029470    3             
iter:   6  19:05:17  -2.43           -9.029475    3             
iter:   7  19:05:18  -3.05           -9.029476    3             
iter:   8  19:05:20  -3.71           -9.029476    3             
iter:   9  19:05:22  -4.29           -9.029476    3             
iter:  10  19:05:22  -5.01           -9.029476    3             
iter:  11  19:05:23  -5.64           -9.029476    3             
iter:  12  19:05:24  -6.27           -9.029476    3             
iter:  13  19:05:24  -6.87           -9.029476    3             
iter:  14  19:05:24  -7.47           -9.029476    3             

Converged after 14 iterations.

Dipole moment: (-1.861615, -1.861615, -1.861615) |e|*Ang

Energy contributions relative to reference atoms: (reference = -2055.256231)

Kinetic:        +23.624254
Potential:      -13.942100
External:        +0.000000
XC:             -18.939756
Entropy (-ST):   -0.000000
Local:           +0.228125
--------------------------
Free energy:     -9.029476
Extrapolated:    -9.029476

Fixed Fermi level: 12.49674

Warning: Showing only first 2 kpts
 Kpt  Band  Eigenvalues  Occupancy
  0     2      9.27176    0.04000
  0     3      9.27176    0.04000
  0     4     20.49387    0.00000
  0     5     20.49387    0.00000

  1     2      9.30231    0.04000
  1     3      9.30231    0.04000
  1     4     20.48985    0.00000
  1     5     20.48985    0.00000


Timing:                              incl.     excl.
-----------------------------------------------------------
Hamiltonian:                         0.330     0.001   0.0% |
 Atomic:                             0.307     0.003   0.0% |
  XC Correction:                     0.304     0.304   0.8% |
 Calculate atomic Hamiltonians:      0.005     0.005   0.0% |
 Communicate:                        0.000     0.000   0.0% |
 Initialize Hamiltonian:             0.000     0.000   0.0% |
 Poisson:                            0.000     0.000   0.0% |
 XC 3D grid:                         0.017     0.017   0.0% |
LCAO initialization:                 4.669     0.113   0.3% |
 LCAO eigensolver:                   1.453     0.011   0.0% |
  Calculate projections:             0.004     0.004   0.0% |
  DenseAtomicCorrection:             0.026     0.026   0.1% |
  Distribute overlap matrix:         0.004     0.004   0.0% |
  Orbital Layouts:                   0.037     0.037   0.1% |
  Potential matrix:                  0.243     0.243   0.7% |
  Sum over cells:                    1.128     1.128   3.1% ||
 LCAO to grid:                       0.464     0.464   1.3% ||
 Set positions (LCAO WFS):           2.640     0.001   0.0% |
  Basic WFS set positions:           0.005     0.005   0.0% |
  Basis functions set positions:     0.000     0.000   0.0% |
  TCI: Calculate S, T, P:            2.634     2.634   7.2% |--|
PWDescriptor:                        0.016     0.016   0.0% |
Redistribute:                        0.000     0.000   0.0% |
SCF-cycle:                          29.125     0.867   2.4% ||
 CG:                                14.939    13.436  36.9% |--------------|
  CG: orthonormalize:                1.504     0.871   2.4% ||
   CG: overlap:                      0.316     0.316   0.9% |
   CG: overlap2:                     0.317     0.317   0.9% |
 Davidson:                           6.299     3.965  10.9% |---|
  calc. matrices:                    1.363     1.363   3.7% ||
  diagonalize:                       0.733     0.733   2.0% ||
  rotate_psi:                        0.238     0.238   0.7% |
 Density:                            0.874     0.001   0.0% |
  Atomic density matrices:           0.076     0.076   0.2% |
  Mix:                               0.057     0.057   0.2% |
  Multipole moments:                 0.003     0.003   0.0% |
  Pseudo density:                    0.737     0.695   1.9% ||
   Symmetrize density:               0.041     0.041   0.1% |
 Hamiltonian:                        2.366     0.006   0.0% |
  Atomic:                            2.169     0.019   0.1% |
   XC Correction:                    2.150     2.150   5.9% |-|
  Calculate atomic Hamiltonians:     0.040     0.040   0.1% |
  Communicate:                       0.000     0.000   0.0% |
  Poisson:                           0.002     0.002   0.0% |
  XC 3D grid:                        0.148     0.148   0.4% |
 Orthonormalize:                     0.149     0.008   0.0% |
  Band Layouts:                      0.006     0.002   0.0% |
   Inverse Cholesky:                 0.004     0.004   0.0% |
  calc_s_matrix:                     0.017     0.017   0.0% |
  projections:                       0.104     0.104   0.3% |
  rotate_psi:                        0.014     0.014   0.0% |
 Residuals:                          0.860     0.860   2.4% ||
 Subspace diag:                      2.770     0.188   0.5% |
  Band Layouts:                      0.418     0.053   0.1% |
   Diagonalize:                      0.326     0.326   0.9% |
   Distribute results:               0.039     0.039   0.1% |
  calc_h_matrix:                     1.827     1.827   5.0% |-|
  rotate_psi:                        0.337     0.337   0.9% |
Set symmetry:                        0.146     0.146   0.4% |
Other:                               2.143     2.143   5.9% |-|
-----------------------------------------------------------
Total:                                        36.429 100.0%

Date: Tue Feb  2 19:05:25 2021
element =  C
struct =  diamond
kpts =  (8,8,8)
element =  C
configuration =  [He] 2s2 2p2
valence =  ['2s', '2p']
occupations =  {'2s': 2, '2p': 2}
nls =  2p
rNum =  600
lmax =  p
*******************************************
Starting confinement parameter optimization
Adjustable parameters and initial values:
  C_2p.r0 : 2.872384
  C_2s.r0 : 2.872384
  C_n.r0 : 4.308576
*******************************************

OPT_VAL: 2.872383711272131   2.872383711272131   4.308575566908196
VCONF:
  C_2p : PowerConfinement(r0=2.872384, s=2.000000)
  C_2s : PowerConfinement(r0=2.872384, s=2.000000)
  C_n : PowerConfinement(r0=4.308576, s=2.000000)
RESIDUAL: 0.0

OPT_VAL: 3.0723837112721313   2.872383711272131   4.308575566908196
VCONF:
  C_2p : PowerConfinement(r0=3.072384, s=2.000000)
  C_2s : PowerConfinement(r0=2.872384, s=2.000000)
  C_n : PowerConfinement(r0=4.308576, s=2.000000)
RESIDUAL: 0.0

OPT_VAL: 2.872383711272131   3.0723837112721313   4.308575566908196
VCONF:
  C_2p : PowerConfinement(r0=2.872384, s=2.000000)
  C_2s : PowerConfinement(r0=3.072384, s=2.000000)
  C_n : PowerConfinement(r0=4.308576, s=2.000000)
RESIDUAL: 0.0

OPT_VAL: 2.872383711272131   2.872383711272131   4.508575566908196
VCONF:
  C_2p : PowerConfinement(r0=2.872384, s=2.000000)
  C_2s : PowerConfinement(r0=2.872384, s=2.000000)
  C_n : PowerConfinement(r0=4.508576, s=2.000000)
RESIDUAL: 0.0

OPT_VAL: 2.897383711272131   2.872383711272131   4.308575566908196
VCONF:
  C_2p : PowerConfinement(r0=2.897384, s=2.000000)
  C_2s : PowerConfinement(r0=2.872384, s=2.000000)
  C_n : PowerConfinement(r0=4.308576, s=2.000000)
RESIDUAL: 0.0

OPT_VAL: 2.872383711272131   2.897383711272131   4.308575566908196
VCONF:
  C_2p : PowerConfinement(r0=2.872384, s=2.000000)
  C_2s : PowerConfinement(r0=2.897384, s=2.000000)
  C_n : PowerConfinement(r0=4.308576, s=2.000000)
RESIDUAL: 0.0

OPT_VAL: 2.872383711272131   2.872383711272131   4.333575566908197
VCONF:
  C_2p : PowerConfinement(r0=2.872384, s=2.000000)
  C_2s : PowerConfinement(r0=2.872384, s=2.000000)
  C_n : PowerConfinement(r0=4.333576, s=2.000000)
RESIDUAL: 0.0

OPT_VAL: 2.877383711272131   2.872383711272131   4.308575566908196
VCONF:
  C_2p : PowerConfinement(r0=2.877384, s=2.000000)
  C_2s : PowerConfinement(r0=2.872384, s=2.000000)
  C_n : PowerConfinement(r0=4.308576, s=2.000000)
RESIDUAL: 0.0

OPT_VAL: 2.872383711272131   2.877383711272131   4.308575566908196
VCONF:
  C_2p : PowerConfinement(r0=2.872384, s=2.000000)
  C_2s : PowerConfinement(r0=2.877384, s=2.000000)
  C_n : PowerConfinement(r0=4.308576, s=2.000000)
RESIDUAL: 0.0

OPT_VAL: 2.872383711272131   2.872383711272131   4.313575566908196
VCONF:
  C_2p : PowerConfinement(r0=2.872384, s=2.000000)
  C_2s : PowerConfinement(r0=2.872384, s=2.000000)
  C_n : PowerConfinement(r0=4.313576, s=2.000000)
RESIDUAL: 0.0

*******************************************
Optimization finished after 10 iterations
Adjustable parameters and final values:
  C_2p.r0 : 2.872384
  C_2s.r0 : 2.872384
  C_n.r0 : 4.308576
*******************************************

VCONF:
  C_2p : PowerConfinement(r0=2.872384, s=2.000000)
  C_2s : PowerConfinement(r0=2.872384, s=2.000000)
  C_n : PowerConfinement(r0=4.308576, s=2.000000)
