
     Program PWSCF v.6.0 (svn rev. 13079) starts on 25Feb2021 at 20:22:13 

     This program is part of the open-source Quantum ESPRESSO suite
     for quantum simulation of materials; please cite
         "P. Giannozzi et al., J. Phys.:Condens. Matter 21 395502 (2009);
          URL http://www.quantum-espresso.org", 
     in publications or presentations arising from this work. More details at
     http://www.quantum-espresso.org/quote

     Parallel version (MPI), running on     1 processors
     Reading input from espresso.pwi
Warning: card &IONS ignored
Warning: card / ignored
Warning: card &CELL ignored
Warning: card / ignored

     Current dimensions of program PWSCF are:
     Max number of different atomic species (ntypx) = 10
     Max number of k-points (npk) =  40000
     Max angular momentum in pseudopotentials (lmaxx) =  3
     Message from routine input:
     WARNING: "startingwfc" set to atomic+random may spoil restart

     Atomic positions and unit cell read from directory:
     ./pwscf.save/


     IMPORTANT: XC functional enforced from input :
     Exchange-correlation      = PBE ( 1  4  3  4 0 0)
     Any further DFT definition will be discarded
     Please, verify this is what you really want


     Subspace diagonalization in iterative solution of the eigenvalue problem:
     a serial algorithm will be used


     G-vector sticks info
     --------------------
     sticks:   dense  smooth     PW     G-vecs:    dense   smooth      PW
     Sum         433     349    109                13919     9943    1775



     bravais-lattice index     =            0
     lattice parameter (alat)  =       5.6295  a.u.
     unit-cell volume          =     291.4253 (a.u.)^3
     number of atoms/cell      =            2
     number of atomic types    =            1
     number of electrons       =        24.00
     number of Kohn-Sham states=           16
     kinetic-energy cutoff     =      40.0000  Ry
     charge density cutoff     =     200.0000  Ry
     Exchange-correlation      = PBE ( 1  4  3  4 0 0)

     celldm(1)=   5.629494  celldm(2)=   0.000000  celldm(3)=   0.000000
     celldm(4)=   0.000000  celldm(5)=   0.000000  celldm(6)=   0.000000

     crystal axes: (cart. coord. in units of alat)
               a(1) = (   1.000000   0.000000   0.000000 )  
               a(2) = (  -0.500000   0.866025   0.000000 )  
               a(3) = (   0.000000   0.000000   1.886203 )  

     reciprocal axes: (cart. coord. in units 2 pi/alat)
               b(1) = (  1.000000  0.577350 -0.000000 )  
               b(2) = (  0.000000  1.154701  0.000000 )  
               b(3) = (  0.000000 -0.000000  0.530166 )  


     PseudoPot. # 1 for Cd read from file:
     /home/inukai/tango/tests/1element/qe_fit_v2_Cd/../pseudo/cd_pbe_v1.uspp.F.UPF
     MD5 check sum: 17164a7926edb8e0dc231208abae86a6
     Pseudo is Ultrasoft + core correction, Zval = 12.0
     Generated by new atomic code, or converted to UPF format
     Using radial grid of  889 points,  6 beta functions with: 
                l(1) =   0
                l(2) =   0
                l(3) =   1
                l(4) =   1
                l(5) =   2
                l(6) =   2
     Q(r) pseudized with  6 coefficients,  rinner =    1.000   1.000   1.000
                                                       1.000   1.000

     atomic species   valence    mass     pseudopotential
        Cd            12.00   112.41400     Cd( 1.00)

     12 Sym. Ops. (no inversion) found
          (note: 12 additional sym.ops. were found but ignored
           their fractional translations are incommensurate with FFT grid)

                                    s                        frac. trans.

      isym =  1     identity                                     

 cryst.   s( 1) = (     1          0          0      )
                  (     0          1          0      )
                  (     0          0          1      )

 cart.    s( 1) = (  1.0000000  0.0000000  0.0000000 )
                  (  0.0000000  1.0000000  0.0000000 )
                  (  0.0000000  0.0000000  1.0000000 )


      isym =  2     180 deg rotation - cart. axis [0,1,0]        

 cryst.   s( 2) = (    -1          0          0      )
                  (     1          1          0      )
                  (     0          0         -1      )

 cart.    s( 2) = ( -1.0000000 -0.0000000  0.0000000 )
                  (  0.0000000  1.0000000  0.0000000 )
                  (  0.0000000  0.0000000 -1.0000000 )


      isym =  3     120 deg rotation - cryst. axis [0,0,1]       

 cryst.   s( 3) = (     0          1          0      )
                  (    -1         -1          0      )
                  (     0          0          1      )

 cart.    s( 3) = ( -0.5000000 -0.8660254  0.0000000 )
                  (  0.8660254 -0.5000000  0.0000000 )
                  (  0.0000000  0.0000000  1.0000000 )


      isym =  4     120 deg rotation - cryst. axis [0,0,-1]      

 cryst.   s( 4) = (    -1         -1          0      )
                  (     1          0          0      )
                  (     0          0          1      )

 cart.    s( 4) = ( -0.5000000  0.8660254  0.0000000 )
                  ( -0.8660254 -0.5000000  0.0000000 )
                  (  0.0000000  0.0000000  1.0000000 )


      isym =  5     180 deg rotation - cryst. axis [1,-1,0]      

 cryst.   s( 5) = (     0         -1          0      )
                  (    -1          0          0      )
                  (     0          0         -1      )

 cart.    s( 5) = (  0.5000000 -0.8660254  0.0000000 )
                  ( -0.8660254 -0.5000000  0.0000000 )
                  (  0.0000000  0.0000000 -1.0000000 )


      isym =  6     180 deg rotation - cryst. axis [2,1,0]       

 cryst.   s( 6) = (     1          1          0      )
                  (     0         -1          0      )
                  (     0          0         -1      )

 cart.    s( 6) = (  0.5000000  0.8660254  0.0000000 )
                  (  0.8660254 -0.5000000  0.0000000 )
                  (  0.0000000  0.0000000 -1.0000000 )


      isym =  7     inv. 180 deg rotation - cart. axis [0,0,1]   

 cryst.   s( 7) = (     1          0          0      )
                  (     0          1          0      )
                  (     0          0         -1      )

 cart.    s( 7) = (  1.0000000  0.0000000  0.0000000 )
                  (  0.0000000  1.0000000  0.0000000 )
                  (  0.0000000  0.0000000 -1.0000000 )


      isym =  8     inv. 180 deg rotation - cart. axis [1,0,0]   

 cryst.   s( 8) = (    -1          0          0      )
                  (     1          1          0      )
                  (     0          0          1      )

 cart.    s( 8) = ( -1.0000000 -0.0000000  0.0000000 )
                  (  0.0000000  1.0000000  0.0000000 )
                  (  0.0000000  0.0000000  1.0000000 )


      isym =  9     inv.  60 deg rotation - cryst. axis [0,0,1]  

 cryst.   s( 9) = (    -1         -1          0      )
                  (     1          0          0      )
                  (     0          0         -1      )

 cart.    s( 9) = ( -0.5000000  0.8660254  0.0000000 )
                  ( -0.8660254 -0.5000000  0.0000000 )
                  (  0.0000000  0.0000000 -1.0000000 )


      isym = 10     inv.  60 deg rotation - cryst. axis [0,0,-1] 

 cryst.   s(10) = (     0          1          0      )
                  (    -1         -1          0      )
                  (     0          0         -1      )

 cart.    s(10) = ( -0.5000000 -0.8660254  0.0000000 )
                  (  0.8660254 -0.5000000  0.0000000 )
                  (  0.0000000  0.0000000 -1.0000000 )


      isym = 11     inv. 180 deg rotation - cryst. axis [0,1,0]  

 cryst.   s(11) = (     1          1          0      )
                  (     0         -1          0      )
                  (     0          0          1      )

 cart.    s(11) = (  0.5000000  0.8660254  0.0000000 )
                  (  0.8660254 -0.5000000  0.0000000 )
                  (  0.0000000  0.0000000  1.0000000 )


      isym = 12     inv. 180 deg rotation - cryst. axis [1,1,0]  

 cryst.   s(12) = (     0         -1          0      )
                  (    -1          0          0      )
                  (     0          0          1      )

 cart.    s(12) = (  0.5000000 -0.8660254  0.0000000 )
                  ( -0.8660254 -0.5000000  0.0000000 )
                  (  0.0000000  0.0000000  1.0000000 )


   Cartesian axes

     site n.     atom                  positions (alat units)
         1           Cd  tau(   1) = (   0.0000000   0.0000000   0.0000000  )
         2           Cd  tau(   2) = (   0.0000000   0.5773503   0.9431017  )

   Crystallographic axes

     site n.     atom                  positions (cryst. coord.)
         1           Cd  tau(   1) = (  0.0000000  0.0000000  0.0000000  )
         2           Cd  tau(   2) = (  0.3333333  0.6666667  0.5000000  )

     number of k points=    50  gaussian smearing, width (Ry)=  0.0010
                       cart. coord. in units 2pi/alat
        k(    1) = (   0.0000000   0.0000000   0.0000000), wk =   0.0400000
        k(    2) = (   0.0333333   0.0192450   0.0000000), wk =   0.0400000
        k(    3) = (   0.0666667   0.0384900   0.0000000), wk =   0.0400000
        k(    4) = (   0.1000000   0.0577350   0.0000000), wk =   0.0400000
        k(    5) = (   0.1333333   0.0769800   0.0000000), wk =   0.0400000
        k(    6) = (   0.1666667   0.0962250   0.0000000), wk =   0.0400000
        k(    7) = (   0.2000000   0.1154701   0.0000000), wk =   0.0400000
        k(    8) = (   0.2333333   0.1347151   0.0000000), wk =   0.0400000
        k(    9) = (   0.2666667   0.1539601   0.0000000), wk =   0.0400000
        k(   10) = (   0.3000000   0.1732051   0.0000000), wk =   0.0400000
        k(   11) = (   0.3333333   0.1924501   0.0000000), wk =   0.0400000
        k(   12) = (   0.3666667   0.2116951   0.0000000), wk =   0.0400000
        k(   13) = (   0.4000000   0.2309401   0.0000000), wk =   0.0400000
        k(   14) = (   0.4333333   0.2501851   0.0000000), wk =   0.0400000
        k(   15) = (   0.4666667   0.2694301   0.0000000), wk =   0.0400000
        k(   16) = (   0.5000000   0.2886751   0.0000000), wk =   0.0400000
        k(   17) = (   0.4791667   0.3247595   0.0000000), wk =   0.0400000
        k(   18) = (   0.4583333   0.3608439   0.0000000), wk =   0.0400000
        k(   19) = (   0.4375000   0.3969283   0.0000000), wk =   0.0400000
        k(   20) = (   0.4166667   0.4330127   0.0000000), wk =   0.0400000
        k(   21) = (   0.3958333   0.4690971   0.0000000), wk =   0.0400000
        k(   22) = (   0.3750000   0.5051815   0.0000000), wk =   0.0400000
        k(   23) = (   0.3541667   0.5412659   0.0000000), wk =   0.0400000
        k(   24) = (   0.3333333   0.5773503   0.0000000), wk =   0.0400000
        k(   25) = (   0.3148148   0.5452753   0.0000000), wk =   0.0400000
        k(   26) = (   0.2962963   0.5132002   0.0000000), wk =   0.0400000
        k(   27) = (   0.2777778   0.4811252   0.0000000), wk =   0.0400000
        k(   28) = (   0.2592593   0.4490502   0.0000000), wk =   0.0400000
        k(   29) = (   0.2407407   0.4169752   0.0000000), wk =   0.0400000
        k(   30) = (   0.2222222   0.3849002   0.0000000), wk =   0.0400000
        k(   31) = (   0.2037037   0.3528252   0.0000000), wk =   0.0400000
        k(   32) = (   0.1851852   0.3207501   0.0000000), wk =   0.0400000
        k(   33) = (   0.1666667   0.2886751   0.0000000), wk =   0.0400000
        k(   34) = (   0.1481481   0.2566001   0.0000000), wk =   0.0400000
        k(   35) = (   0.1296296   0.2245251   0.0000000), wk =   0.0400000
        k(   36) = (   0.1111111   0.1924501   0.0000000), wk =   0.0400000
        k(   37) = (   0.0925926   0.1603751   0.0000000), wk =   0.0400000
        k(   38) = (   0.0740741   0.1283001   0.0000000), wk =   0.0400000
        k(   39) = (   0.0555556   0.0962250   0.0000000), wk =   0.0400000
        k(   40) = (   0.0370370   0.0641500   0.0000000), wk =   0.0400000
        k(   41) = (   0.0185185   0.0320750   0.0000000), wk =   0.0400000
        k(   42) = (   0.0000000   0.0000000   0.0000000), wk =   0.0400000
        k(   43) = (   0.0000000   0.0000000   0.0331353), wk =   0.0400000
        k(   44) = (   0.0000000   0.0000000   0.0662707), wk =   0.0400000
        k(   45) = (   0.0000000   0.0000000   0.0994060), wk =   0.0400000
        k(   46) = (   0.0000000   0.0000000   0.1325414), wk =   0.0400000
        k(   47) = (   0.0000000   0.0000000   0.1656767), wk =   0.0400000
        k(   48) = (   0.0000000   0.0000000   0.1988121), wk =   0.0400000
        k(   49) = (   0.0000000   0.0000000   0.2319474), wk =   0.0400000
        k(   50) = (   0.0000000   0.0000000   0.2650828), wk =   0.0400000

                       cryst. coord.
        k(    1) = (   0.0000000   0.0000000   0.0000000), wk =   0.0400000
        k(    2) = (   0.0333333   0.0000000   0.0000000), wk =   0.0400000
        k(    3) = (   0.0666667   0.0000000   0.0000000), wk =   0.0400000
        k(    4) = (   0.1000000   0.0000000   0.0000000), wk =   0.0400000
        k(    5) = (   0.1333333   0.0000000   0.0000000), wk =   0.0400000
        k(    6) = (   0.1666667   0.0000000   0.0000000), wk =   0.0400000
        k(    7) = (   0.2000000   0.0000000   0.0000000), wk =   0.0400000
        k(    8) = (   0.2333333   0.0000000   0.0000000), wk =   0.0400000
        k(    9) = (   0.2666667   0.0000000   0.0000000), wk =   0.0400000
        k(   10) = (   0.3000000   0.0000000   0.0000000), wk =   0.0400000
        k(   11) = (   0.3333333   0.0000000   0.0000000), wk =   0.0400000
        k(   12) = (   0.3666667   0.0000000   0.0000000), wk =   0.0400000
        k(   13) = (   0.4000000   0.0000000   0.0000000), wk =   0.0400000
        k(   14) = (   0.4333333   0.0000000   0.0000000), wk =   0.0400000
        k(   15) = (   0.4666667   0.0000000   0.0000000), wk =   0.0400000
        k(   16) = (   0.5000000   0.0000000   0.0000000), wk =   0.0400000
        k(   17) = (   0.4791667   0.0416667   0.0000000), wk =   0.0400000
        k(   18) = (   0.4583333   0.0833333   0.0000000), wk =   0.0400000
        k(   19) = (   0.4375000   0.1250000   0.0000000), wk =   0.0400000
        k(   20) = (   0.4166667   0.1666667   0.0000000), wk =   0.0400000
        k(   21) = (   0.3958333   0.2083333   0.0000000), wk =   0.0400000
        k(   22) = (   0.3750000   0.2500000   0.0000000), wk =   0.0400000
        k(   23) = (   0.3541667   0.2916667   0.0000000), wk =   0.0400000
        k(   24) = (   0.3333333   0.3333333   0.0000000), wk =   0.0400000
        k(   25) = (   0.3148148   0.3148148   0.0000000), wk =   0.0400000
        k(   26) = (   0.2962963   0.2962963   0.0000000), wk =   0.0400000
        k(   27) = (   0.2777778   0.2777778   0.0000000), wk =   0.0400000
        k(   28) = (   0.2592593   0.2592593   0.0000000), wk =   0.0400000
        k(   29) = (   0.2407407   0.2407407   0.0000000), wk =   0.0400000
        k(   30) = (   0.2222222   0.2222222   0.0000000), wk =   0.0400000
        k(   31) = (   0.2037037   0.2037037   0.0000000), wk =   0.0400000
        k(   32) = (   0.1851852   0.1851852   0.0000000), wk =   0.0400000
        k(   33) = (   0.1666667   0.1666667   0.0000000), wk =   0.0400000
        k(   34) = (   0.1481481   0.1481481   0.0000000), wk =   0.0400000
        k(   35) = (   0.1296296   0.1296296   0.0000000), wk =   0.0400000
        k(   36) = (   0.1111111   0.1111111   0.0000000), wk =   0.0400000
        k(   37) = (   0.0925926   0.0925926   0.0000000), wk =   0.0400000
        k(   38) = (   0.0740741   0.0740741   0.0000000), wk =   0.0400000
        k(   39) = (   0.0555556   0.0555556   0.0000000), wk =   0.0400000
        k(   40) = (   0.0370370   0.0370370   0.0000000), wk =   0.0400000
        k(   41) = (   0.0185185   0.0185185   0.0000000), wk =   0.0400000
        k(   42) = (   0.0000000   0.0000000   0.0000000), wk =   0.0400000
        k(   43) = (   0.0000000   0.0000000   0.0625000), wk =   0.0400000
        k(   44) = (   0.0000000   0.0000000   0.1250000), wk =   0.0400000
        k(   45) = (   0.0000000   0.0000000   0.1875000), wk =   0.0400000
        k(   46) = (   0.0000000   0.0000000   0.2500000), wk =   0.0400000
        k(   47) = (   0.0000000   0.0000000   0.3125000), wk =   0.0400000
        k(   48) = (   0.0000000   0.0000000   0.3750000), wk =   0.0400000
        k(   49) = (   0.0000000   0.0000000   0.4375000), wk =   0.0400000
        k(   50) = (   0.0000000   0.0000000   0.5000000), wk =   0.0400000

     Dense  grid:    13919 G-vectors     FFT dimensions: (  25,  25,  48)

     Smooth grid:     9943 G-vectors     FFT dimensions: (  24,  24,  45)

     Estimated max dynamical RAM per process >      22.52Mb

     The potential is recalculated from file :
     ./pwscf.save/charge-density.dat


     negative rho (up, down):  4.443E-02 0.000E+00
     Starting wfc are   18 randomized atomic wfcs

     Band Structure Calculation
     Davidson diagonalization with overlap

     Computing kpt #:     1
     total cpu time spent up to now is        1.3 secs

     Computing kpt #:     2
     total cpu time spent up to now is        2.0 secs

     Computing kpt #:     3
     total cpu time spent up to now is        2.6 secs

     Computing kpt #:     4
     total cpu time spent up to now is        3.1 secs

     Computing kpt #:     5
     total cpu time spent up to now is        3.7 secs

     Computing kpt #:     6
     total cpu time spent up to now is        4.3 secs

     Computing kpt #:     7
     total cpu time spent up to now is        4.8 secs

     Computing kpt #:     8
     total cpu time spent up to now is        5.5 secs

     Computing kpt #:     9
     total cpu time spent up to now is        6.1 secs

     Computing kpt #:    10
     total cpu time spent up to now is        6.8 secs

     Computing kpt #:    11
     total cpu time spent up to now is        7.5 secs

     Computing kpt #:    12
     total cpu time spent up to now is        8.0 secs

     Computing kpt #:    13
     total cpu time spent up to now is        8.6 secs

     Computing kpt #:    14
     total cpu time spent up to now is        9.1 secs

     Computing kpt #:    15
     total cpu time spent up to now is        9.6 secs

     Computing kpt #:    16
     total cpu time spent up to now is       10.1 secs

     Computing kpt #:    17
     total cpu time spent up to now is       10.6 secs

     Computing kpt #:    18
     total cpu time spent up to now is       11.1 secs

     Computing kpt #:    19
     total cpu time spent up to now is       11.8 secs

     Computing kpt #:    20
     total cpu time spent up to now is       12.3 secs

     Computing kpt #:    21
     total cpu time spent up to now is       12.8 secs

     Computing kpt #:    22
     total cpu time spent up to now is       13.3 secs

     Computing kpt #:    23
     total cpu time spent up to now is       13.8 secs

     Computing kpt #:    24
     total cpu time spent up to now is       14.3 secs

     Computing kpt #:    25
     total cpu time spent up to now is       14.8 secs

     Computing kpt #:    26
     total cpu time spent up to now is       15.4 secs

     Computing kpt #:    27
     total cpu time spent up to now is       16.1 secs

     Computing kpt #:    28
     total cpu time spent up to now is       16.7 secs

     Computing kpt #:    29
     total cpu time spent up to now is       17.4 secs

     Computing kpt #:    30
     total cpu time spent up to now is       18.0 secs

     Computing kpt #:    31
     total cpu time spent up to now is       18.7 secs

     Computing kpt #:    32
     total cpu time spent up to now is       19.4 secs

     Computing kpt #:    33
     total cpu time spent up to now is       20.2 secs

     Computing kpt #:    34
     total cpu time spent up to now is       20.9 secs

     Computing kpt #:    35
     total cpu time spent up to now is       21.5 secs

     Computing kpt #:    36
     total cpu time spent up to now is       22.1 secs

     Computing kpt #:    37
     total cpu time spent up to now is       22.6 secs

     Computing kpt #:    38
     total cpu time spent up to now is       23.2 secs

     Computing kpt #:    39
     total cpu time spent up to now is       23.7 secs

     Computing kpt #:    40
     total cpu time spent up to now is       24.4 secs

     Computing kpt #:    41
     total cpu time spent up to now is       25.1 secs

     Computing kpt #:    42
     total cpu time spent up to now is       25.8 secs

     Computing kpt #:    43
     total cpu time spent up to now is       26.5 secs

     Computing kpt #:    44
     total cpu time spent up to now is       27.2 secs

     Computing kpt #:    45
     total cpu time spent up to now is       27.9 secs

     Computing kpt #:    46
     total cpu time spent up to now is       28.8 secs

     Computing kpt #:    47
     total cpu time spent up to now is       29.6 secs

     Computing kpt #:    48
     total cpu time spent up to now is       30.4 secs

     Computing kpt #:    49
     total cpu time spent up to now is       31.1 secs

     Computing kpt #:    50
     total cpu time spent up to now is       31.8 secs

     ethr =  4.17E-10,  avg # of iterations = 23.6

     total cpu time spent up to now is       31.8 secs

     End of band structure calculation

          k = 0.0000 0.0000 0.0000 (  1257 PWs)   bands (ev):

     1.8363   2.1022   2.4827   2.4827   2.5343   2.5343   2.8215   2.9929
     2.9929   3.2452   3.2452   8.6307   8.6913  22.0784  25.6669  26.4492

          k = 0.0333 0.0192 0.0000 (  1253 PWs)   bands (ev):

     1.8482   2.1142   2.4780   2.4930   2.5299   2.5441   2.8442   2.9845
     2.9892   3.2293   3.2455   8.6758   8.7070  22.1164  25.4426  25.9373

          k = 0.0667 0.0385 0.0000 (  1251 PWs)   bands (ev):

     1.8824   2.1459   2.4655   2.5173   2.5236   2.5736   2.9161   2.9590
     2.9783   3.1846   3.2462   8.7546   8.8087  22.2294  24.4737  25.5732

          k = 0.1000 0.0577 0.0000 (  1252 PWs)   bands (ev):

     1.9333   2.1875   2.4470   2.5012   2.5737   2.6218   2.9149   2.9611
     3.0449   3.1188   3.2468   8.8362   9.0237  22.4140  23.2665  24.9108

          k = 0.1333 0.0770 0.0000 (  1246 PWs)   bands (ev):

     1.9891   2.2279   2.4189   2.4995   2.6415   2.6871   2.8503   2.9390
     3.0435   3.2384   3.2468   8.9550   9.3128  22.0144  22.6624  24.2438

          k = 0.1667 0.0962 0.0000 (  1242 PWs)   bands (ev):

     2.0281   2.2640   2.3839   2.5283   2.7247   2.7646   2.7672   2.9133
     2.9687   3.2458   3.5008   9.1155   9.6672  20.7565  22.9532  23.5961

          k = 0.2000 0.1155 0.0000 (  1242 PWs)   bands (ev):

     2.0303   2.2725   2.3835   2.5858   2.6636   2.8205   2.8592   2.8853
     2.8985   3.2437   3.8327   9.3226  10.0790  19.5095  22.9798  23.1936

          k = 0.2333 0.1347 0.0000 (  1238 PWs)   bands (ev):

     2.0005   2.2284   2.4441   2.5563   2.6649   2.8325   2.8564   2.9250
     2.9597   3.2405   4.2325   9.5820  10.5408  18.2833  22.4029  22.9368

          k = 0.2667 0.1540 0.0000 (  1244 PWs)   bands (ev):

     1.9537   2.1697   2.4503   2.5181   2.7581   2.7704   2.8276   3.0342
     3.0646   3.2364   4.6978   9.8987  11.0465  17.0851  21.7296  21.8725

          k = 0.3000 0.1732 0.0000 (  1246 PWs)   bands (ev):

     1.9008   2.1098   2.3513   2.5886   2.7126   2.8003   2.8567   3.1432
     3.1698   3.2318   5.2265  10.2765  11.5902  15.9212  20.5374  21.2322

          k = 0.3333 0.1925 0.0000 (  1240 PWs)   bands (ev):

     1.8483   2.0535   2.2630   2.6516   2.6603   2.7755   2.9520   3.2270
     3.2468   3.2706   5.8161  10.7154  12.1660  14.7992  19.3789  20.3245

          k = 0.3667 0.2117 0.0000 (  1242 PWs)   bands (ev):

     1.8006   2.0035   2.1880   2.6152   2.7058   2.7539   3.0367   3.2224
     3.3400   3.3623   6.4643  11.2038  12.7663  13.7361  18.2660  19.4486

          k = 0.4000 0.2309 0.0000 (  1250 PWs)   bands (ev):

     1.7604   1.9623   2.1282   2.5785   2.7362   2.7500   3.1059   3.2183
     3.4178   3.4400   7.1681  11.6508  12.8245  13.3785  17.2099  18.6214

          k = 0.4333 0.2502 0.0000 (  1252 PWs)   bands (ev):

     1.7303   1.9316   2.0848   2.5514   2.7231   2.7828   3.1567   3.2152
     3.4764   3.4994   7.9233  11.3866  12.7290  13.9756  16.2268  17.8710

          k = 0.4667 0.2694 0.0000 (  1250 PWs)   bands (ev):

     1.7116   1.9127   2.0585   2.5348   2.7152   2.8031   3.1876   3.2133
     3.5129   3.5367   8.7176  10.5442  13.2876  14.4838  15.3621  17.2709

          k = 0.5000 0.2887 0.0000 (  1240 PWs)   bands (ev):

     1.7053   1.9063   2.0497   2.5292   2.7125   2.8100   3.1981   3.2126
     3.5253   3.5495   9.3543   9.8742  13.6750  14.7114  14.8899  17.0127

          k = 0.4792 0.3248 0.0000 (  1248 PWs)   bands (ev):

     1.7233   1.9255   2.0539   2.5312   2.7056   2.8099   3.1894   3.2043
     3.5083   3.5318   9.4039   9.9058  13.7164  14.7525  14.9110  17.0345

          k = 0.4583 0.3608 0.0000 (  1250 PWs)   bands (ev):

     1.7761   1.9815   2.0662   2.5368   2.6858   2.8094   3.1619   3.1807
     3.4622   3.4812   9.5500   9.9993  13.8409  14.8751  14.9740  17.0986

          k = 0.4375 0.3969 0.0000 (  1250 PWs)   bands (ev):

     1.8610   2.0705   2.0857   2.5450   2.6553   2.8076   3.1102   3.1449
     3.3999   3.4046   9.7851  10.1515  14.0479  15.0764  15.0770  17.2007

          k = 0.4167 0.4330 0.0000 (  1246 PWs)   bands (ev):

     1.9730   2.1102   2.1851   2.5540   2.6186   2.8040   3.0297   3.1019
     3.3118   3.3361  10.0993  10.3589  14.3366  15.2000  15.3527  16.4864

          k = 0.3958 0.4691 0.0000 (  1252 PWs)   bands (ev):

     2.1056   2.1365   2.3134   2.5609   2.5814   2.7980   2.9238   3.0581
     3.2161   3.2781  10.4823  10.6196  14.7046  15.0273  15.6992  15.7227

          k = 0.3750 0.5052 0.0000 (  1244 PWs)   bands (ev):

     2.1603   2.2506   2.4337   2.5513   2.5627   2.7920   2.8043   3.0212
     3.1350   3.2244  10.9251  10.9343  14.0439  15.1474  15.8501  16.1107

          k = 0.3542 0.5413 0.0000 (  1246 PWs)   bands (ev):

     2.1758   2.3975   2.5084   2.5366   2.5565   2.6845   2.7952   2.9971
     3.0928   3.1712  11.3060  11.4156  12.9697  15.6544  16.1717  16.5822

          k = 0.3333 0.5774 0.0000 (  1248 PWs)   bands (ev):

     2.1806   2.5102   2.5102   2.5426   2.5427   2.6004   2.8029   2.9891
     3.1157   3.1157  11.7400  11.7400  12.1354  16.0952  16.5800  16.5800

          k = 0.3148 0.5453 0.0000 (  1250 PWs)   bands (ev):

     2.1784   2.4572   2.4712   2.5268   2.5648   2.6779   2.7940   2.9947
     3.0636   3.1838  10.9425  12.1824  12.5540  15.4343  16.5347  16.8894

          k = 0.2963 0.5132 0.0000 (  1246 PWs)   bands (ev):

     2.1759   2.3806   2.4198   2.5118   2.5985   2.7711   2.7759   3.0086
     3.0095   3.2650  10.0717  12.6815  13.1215  14.5744  15.8700  17.4939

          k = 0.2778 0.4811 0.0000 (  1244 PWs)   bands (ev):

     2.1783   2.3152   2.3690   2.5010   2.6392   2.7395   2.8571   2.9509
     3.0305   3.3362   9.2318  13.2326  13.7378  13.7634  15.1806  18.0561

          k = 0.2593 0.4491 0.0000 (  1244 PWs)   bands (ev):

     2.1899   2.2640   2.3250   2.4977   2.6835   2.7014   2.8900   2.9180
     3.0552   3.3849   8.4307  12.9782  13.8757  14.3984  14.4947  18.6730

          k = 0.2407 0.4170 0.0000 (  1250 PWs)   bands (ev):

     2.2135   2.2276   2.2905   2.5034   2.6582   2.7288   2.8286   2.9552
     3.0814   3.4048   7.6721  12.2816  13.8251  14.5543  15.1021  19.3512

          k = 0.2222 0.3849 0.0000 (  1248 PWs)   bands (ev):

     2.2056   2.2507   2.2662   2.5190   2.6108   2.7657   2.7734   2.9711
     3.1080   3.3931   6.9590  11.6488  13.1787  15.2958  15.8477  20.0885

          k = 0.2037 0.3528 0.0000 (  1254 PWs)   bands (ev):

     2.1971   2.2508   2.3024   2.5446   2.5609   2.7027   2.8160   2.9669
     3.1336   3.3498   6.2941  11.0853  12.5597  16.0945  16.6334  20.8819

          k = 0.1852 0.3208 0.0000 (  1244 PWs)   bands (ev):

     2.2005   2.2412   2.3685   2.5117   2.5797   2.6406   2.8562   2.9457
     3.1576   3.2779   5.6800  10.5923  11.9712  16.9460  17.4566  21.7264

          k = 0.1667 0.2887 0.0000 (  1249 PWs)   bands (ev):

     2.2130   2.2312   2.4477   2.4684   2.5804   2.6225   2.8934   2.9111
     3.1792   3.1824   5.1193  10.1686  11.4160  17.8455  18.3142  22.6145

          k = 0.1481 0.2566 0.0000 (  1245 PWs)   bands (ev):

     2.2110   2.2319   2.4394   2.5239   2.5382   2.6718   2.8665   2.9278
     3.0709   3.1981   4.6147   9.8111  10.8971  18.7877  19.2028  23.3952

          k = 0.1296 0.2245 0.0000 (  1251 PWs)   bands (ev):

     2.1729   2.2519   2.4309   2.4740   2.6364   2.7253   2.8154   2.9522
     2.9598   3.2138   4.1690   9.5149  10.4180  19.7671  20.1183  23.4918

          k = 0.1111 0.1925 0.0000 (  1249 PWs)   bands (ev):

     2.1185   2.2641   2.4372   2.4400   2.7371   2.7614   2.7805   2.8357
     2.9913   3.2264   3.7850   9.2742   9.9827  20.7772  21.0563  23.2268

          k = 0.0926 0.1604 0.0000 (  1249 PWs)   bands (ev):

     2.0547   2.2558   2.4232   2.4588   2.7072   2.7297   2.8317   2.8347
     3.0263   3.2356   3.4659   9.0828   9.5963  21.8108  22.0109  22.9102

          k = 0.0741 0.1283 0.0000 (  1253 PWs)   bands (ev):

     1.9890   2.2251   2.4313   2.4810   2.6403   2.6553   2.8851   2.9066
     3.0722   3.2142   3.2416   8.9348   9.2649  22.6238  22.8585  22.9734

          k = 0.0556 0.0962 0.0000 (  1255 PWs)   bands (ev):

     1.9283   2.1837   2.4489   2.5021   2.5706   2.6080   2.9288   2.9530
     3.0301   3.1313   3.2447   8.8252   8.9956  22.3900  23.9066  23.9264

          k = 0.0370 0.0642 0.0000 (  1259 PWs)   bands (ev):

     1.8792   2.1431   2.4661   2.5190   2.5215   2.5691   2.9092   2.9631
     2.9774   3.1894   3.2456   8.7498   8.7958  22.2183  24.8229  24.9303

          k = 0.0185 0.0321 0.0000 (  1243 PWs)   bands (ev):

     1.8473   2.1134   2.4783   2.4923   2.5305   2.5433   2.8426   2.9854
     2.9895   3.2305   3.2455   8.6725   8.7058  22.1136  25.4877  25.8705

          k = 0.0000 0.0000 0.0000 (  1257 PWs)   bands (ev):

     1.8363   2.1022   2.4827   2.4827   2.5343   2.5343   2.8215   2.9929
     2.9929   3.2452   3.2452   8.6307   8.6913  22.0784  25.6669  26.4492

          k = 0.0000 0.0000 0.0331 (  1239 PWs)   bands (ev):

     1.8388   2.0999   2.4824   2.4824   2.5332   2.5332   2.8450   2.9963
     2.9963   3.2434   3.2434   7.9723   9.3882  21.8145  25.6734  26.4646

          k = 0.0000 0.0000 0.0663 (  1251 PWs)   bands (ev):

     1.8462   2.0921   2.4817   2.4817   2.5300   2.5300   2.9154   3.0055
     3.0055   3.2379   3.2379   7.3241  10.1516  21.1541  25.6824  26.5106

          k = 0.0000 0.0000 0.0994 (  1263 PWs)   bands (ev):

     1.8583   2.0795   2.4810   2.4810   2.5249   2.5249   3.0202   3.0202
     3.0327   3.2289   3.2289   6.7162  10.9510  20.2941  25.6917  26.5866

          k = 0.0000 0.0000 0.1325 (  1263 PWs)   bands (ev):

     1.8745   2.0627   2.4808   2.4808   2.5187   2.5187   3.0394   3.0394
     3.1967   3.2163   3.2163   6.1497  11.7847  19.3467  25.7084  26.5152

          k = 0.0000 0.0000 0.1657 (  1252 PWs)   bands (ev):

     1.8944   2.0423   2.4815   2.4815   2.5118   2.5118   3.0620   3.0620
     3.2005   3.2005   3.4072   5.6256  12.6509  18.3648  25.7390  26.3599

          k = 0.0000 0.0000 0.1988 (  1252 PWs)   bands (ev):

     1.9172   2.0191   2.4834   2.4834   2.5046   2.5046   3.0864   3.0864
     3.1815   3.1815   3.6639   5.1445  13.5474  17.3746  25.7885  26.2094

          k = 0.0000 0.0000 0.2319 (  1258 PWs)   bands (ev):

     1.9420   1.9940   2.4868   2.4868   2.4977   2.4977   3.1115   3.1115
     3.1600   3.1600   3.9664   4.7072  14.4718  16.3904  25.8601  26.0725

          k = 0.0000 0.0000 0.2651 (  1246 PWs)   bands (ev):

     1.9680   1.9682   2.4916   2.4916   2.4917   2.4917   3.1363   3.1363
     3.1365   3.1365   4.3143   4.3144  15.4208  15.4209  25.9550  25.9551

     Writing output data file pwscf.save

     init_run     :      0.58s CPU      0.51s WALL (       1 calls)
     electrons    :     65.42s CPU     31.17s WALL (       1 calls)

     Called by init_run:
     wfcinit      :      0.00s CPU      0.00s WALL (       1 calls)
     wfcinit:atom :      0.09s CPU      0.05s WALL (      50 calls)
     wfcinit:wfcr :      3.67s CPU      1.85s WALL (      50 calls)
     potinit      :      0.03s CPU      0.03s WALL (       1 calls)

     Called by electrons:
     c_bands      :     65.42s CPU     31.17s WALL (       1 calls)
     v_of_rho     :      0.03s CPU      0.02s WALL (       1 calls)
     v_h          :      0.00s CPU      0.00s WALL (       1 calls)
     v_xc         :      0.03s CPU      0.02s WALL (       1 calls)
     newd         :      0.02s CPU      0.09s WALL (       1 calls)

     Called by c_bands:
     init_us_2    :      0.17s CPU      0.06s WALL (      50 calls)
     cegterg      :     60.31s CPU     28.72s WALL (      78 calls)

     Called by sum_band:

     Called by *egterg:
     h_psi        :     51.06s CPU     24.38s WALL (    1308 calls)
     s_psi        :      0.73s CPU      0.32s WALL (    1308 calls)
     g_psi        :      0.39s CPU      0.17s WALL (    1180 calls)
     cdiaghg      :      6.09s CPU      3.54s WALL (    1230 calls)
     cegterg:over :      2.38s CPU      0.82s WALL (    1180 calls)
     cegterg:upda :      1.73s CPU      0.76s WALL (    1180 calls)
     cegterg:last :      0.70s CPU      0.22s WALL (     239 calls)

     Called by h_psi:
     h_psi:pot    :     50.89s CPU     24.25s WALL (    1308 calls)
     h_psi:calbec :      0.98s CPU      0.39s WALL (    1308 calls)
     vloc_psi     :     49.16s CPU     23.43s WALL (    1308 calls)
     add_vuspsi   :      0.67s CPU      0.39s WALL (    1308 calls)

     General routines
     calbec       :      0.98s CPU      0.37s WALL (    1308 calls)
     fft          :      0.00s CPU      0.01s WALL (      13 calls)
     ffts         :      0.00s CPU      0.01s WALL (       1 calls)
     fftw         :     45.16s CPU     21.56s WALL (   24306 calls)
     interpolate  :      0.00s CPU      0.01s WALL (       1 calls)
     davcio       :      0.00s CPU      0.01s WALL (      50 calls)

     Parallel routines
     fft_scatter  :      2.27s CPU      1.17s WALL (   24320 calls)

     PWSCF        :  1m 6.33s CPU     0m32.07s WALL


   This run was terminated on:  20:22:45  25Feb2021            

=------------------------------------------------------------------------------=
   JOB DONE.
=------------------------------------------------------------------------------=
