
     Program PWSCF v.6.0 (svn rev. 13079) starts on 26Feb2021 at 11: 8: 2 

     This program is part of the open-source Quantum ESPRESSO suite
     for quantum simulation of materials; please cite
         "P. Giannozzi et al., J. Phys.:Condens. Matter 21 395502 (2009);
          URL http://www.quantum-espresso.org", 
     in publications or presentations arising from this work. More details at
     http://www.quantum-espresso.org/quote

     Parallel version (MPI), running on     1 processors
     Reading input from espresso.pwi
Warning: card &IONS ignored
Warning: card / ignored
Warning: card &CELL ignored
Warning: card / ignored

     Current dimensions of program PWSCF are:
     Max number of different atomic species (ntypx) = 10
     Max number of k-points (npk) =  40000
     Max angular momentum in pseudopotentials (lmaxx) =  3
     Message from routine input:
     WARNING: "startingwfc" set to atomic+random may spoil restart

     Atomic positions and unit cell read from directory:
     ./pwscf.save/


     IMPORTANT: XC functional enforced from input :
     Exchange-correlation      = PBE ( 1  4  3  4 0 0)
     Any further DFT definition will be discarded
     Please, verify this is what you really want


     Subspace diagonalization in iterative solution of the eigenvalue problem:
     a serial algorithm will be used


     G-vector sticks info
     --------------------
     sticks:   dense  smooth     PW     G-vecs:    dense   smooth      PW
     Sum         433     349    109                11247     8003    1461



     bravais-lattice index     =            0
     lattice parameter (alat)  =       5.5494  a.u.
     unit-cell volume          =     234.4560 (a.u.)^3
     number of atoms/cell      =            2
     number of atomic types    =            1
     number of electrons       =        24.00
     number of Kohn-Sham states=           16
     kinetic-energy cutoff     =      40.0000  Ry
     charge density cutoff     =     200.0000  Ry
     Exchange-correlation      = PBE ( 1  4  3  4 0 0)

     celldm(1)=   5.549443  celldm(2)=   0.000000  celldm(3)=   0.000000
     celldm(4)=   0.000000  celldm(5)=   0.000000  celldm(6)=   0.000000

     crystal axes: (cart. coord. in units of alat)
               a(1) = (   1.000000   0.000000   0.000000 )  
               a(2) = (  -0.500000   0.866025   0.000000 )  
               a(3) = (   0.000000   0.000000   1.584099 )  

     reciprocal axes: (cart. coord. in units 2 pi/alat)
               b(1) = (  1.000000  0.577350 -0.000000 )  
               b(2) = (  0.000000  1.154701  0.000000 )  
               b(3) = (  0.000000 -0.000000  0.631274 )  


     PseudoPot. # 1 for Ti read from file:
     /home/inukai/tango/tests/1element/qe_fit_v3_Ti/../pseudo/ti_pbe_v1.4.uspp.F.UPF
     MD5 check sum: 88a00a6731bd790ddea75d31a80cb452
     Pseudo is Ultrasoft + core correction, Zval = 12.0
     Generated by new atomic code, or converted to UPF format
     Using radial grid of  851 points,  6 beta functions with: 
                l(1) =   0
                l(2) =   0
                l(3) =   1
                l(4) =   1
                l(5) =   2
                l(6) =   2
     Q(r) pseudized with  6 coefficients,  rinner =    1.000   1.000   1.000
                                                       1.000   1.000

     atomic species   valence    mass     pseudopotential
        Ti            12.00    47.86700     Ti( 1.00)

     24 Sym. Ops., with inversion, found (12 have fractional translation)


                                    s                        frac. trans.

      isym =  1     identity                                     

 cryst.   s( 1) = (     1          0          0      )
                  (     0          1          0      )
                  (     0          0          1      )

 cart.    s( 1) = (  1.0000000  0.0000000  0.0000000 )
                  (  0.0000000  1.0000000  0.0000000 )
                  (  0.0000000  0.0000000  1.0000000 )


      isym =  2     180 deg rotation - cart. axis [0,0,1]        

 cryst.   s( 2) = (    -1          0          0      )    f =(  0.0000000 )
                  (     0         -1          0      )       (  0.0000000 )
                  (     0          0          1      )       (  0.5000000 )

 cart.    s( 2) = ( -1.0000000  0.0000000  0.0000000 )    f =(  0.0000000 )
                  (  0.0000000 -1.0000000  0.0000000 )       (  0.0000000 )
                  (  0.0000000  0.0000000  1.0000000 )       (  0.7920497 )


      isym =  3     180 deg rotation - cart. axis [0,1,0]        

 cryst.   s( 3) = (    -1          0          0      )    f =(  0.0000000 )
                  (     1          1          0      )       (  0.0000000 )
                  (     0          0         -1      )       (  0.5000000 )

 cart.    s( 3) = ( -1.0000000  0.0000000  0.0000000 )    f =(  0.0000000 )
                  (  0.0000000  1.0000000  0.0000000 )       (  0.0000000 )
                  (  0.0000000  0.0000000 -1.0000000 )       (  0.7920497 )


      isym =  4     180 deg rotation - cart. axis [1,0,0]        

 cryst.   s( 4) = (     1          0          0      )
                  (    -1         -1          0      )
                  (     0          0         -1      )

 cart.    s( 4) = (  1.0000000 -0.0000000  0.0000000 )
                  (  0.0000000 -1.0000000  0.0000000 )
                  (  0.0000000  0.0000000 -1.0000000 )


      isym =  5      60 deg rotation - cryst. axis [0,0,1]       

 cryst.   s( 5) = (     1          1          0      )    f =(  0.0000000 )
                  (    -1          0          0      )       (  0.0000000 )
                  (     0          0          1      )       (  0.5000000 )

 cart.    s( 5) = (  0.5000000 -0.8660254  0.0000000 )    f =(  0.0000000 )
                  (  0.8660254  0.5000000  0.0000000 )       (  0.0000000 )
                  (  0.0000000  0.0000000  1.0000000 )       (  0.7920497 )


      isym =  6      60 deg rotation - cryst. axis [0,0,-1]      

 cryst.   s( 6) = (     0         -1          0      )    f =(  0.0000000 )
                  (     1          1          0      )       (  0.0000000 )
                  (     0          0          1      )       (  0.5000000 )

 cart.    s( 6) = (  0.5000000  0.8660254  0.0000000 )    f =(  0.0000000 )
                  ( -0.8660254  0.5000000  0.0000000 )       (  0.0000000 )
                  (  0.0000000  0.0000000  1.0000000 )       (  0.7920497 )


      isym =  7     120 deg rotation - cryst. axis [0,0,1]       

 cryst.   s( 7) = (     0          1          0      )
                  (    -1         -1          0      )
                  (     0          0          1      )

 cart.    s( 7) = ( -0.5000000 -0.8660254  0.0000000 )
                  (  0.8660254 -0.5000000  0.0000000 )
                  (  0.0000000  0.0000000  1.0000000 )


      isym =  8     120 deg rotation - cryst. axis [0,0,-1]      

 cryst.   s( 8) = (    -1         -1          0      )
                  (     1          0          0      )
                  (     0          0          1      )

 cart.    s( 8) = ( -0.5000000  0.8660254  0.0000000 )
                  ( -0.8660254 -0.5000000  0.0000000 )
                  (  0.0000000  0.0000000  1.0000000 )


      isym =  9     180 deg rotation - cryst. axis [1,-1,0]      

 cryst.   s( 9) = (     0         -1          0      )    f =(  0.0000000 )
                  (    -1          0          0      )       (  0.0000000 )
                  (     0          0         -1      )       (  0.5000000 )

 cart.    s( 9) = (  0.5000000 -0.8660254  0.0000000 )    f =(  0.0000000 )
                  ( -0.8660254 -0.5000000  0.0000000 )       (  0.0000000 )
                  (  0.0000000  0.0000000 -1.0000000 )       (  0.7920497 )


      isym = 10     180 deg rotation - cryst. axis [2,1,0]       

 cryst.   s(10) = (     1          1          0      )    f =(  0.0000000 )
                  (     0         -1          0      )       (  0.0000000 )
                  (     0          0         -1      )       (  0.5000000 )

 cart.    s(10) = (  0.5000000  0.8660254  0.0000000 )    f =(  0.0000000 )
                  (  0.8660254 -0.5000000  0.0000000 )       (  0.0000000 )
                  (  0.0000000  0.0000000 -1.0000000 )       (  0.7920497 )


      isym = 11     180 deg rotation - cryst. axis [0,1,0]       

 cryst.   s(11) = (    -1         -1          0      )
                  (     0          1          0      )
                  (     0          0         -1      )

 cart.    s(11) = ( -0.5000000 -0.8660254  0.0000000 )
                  ( -0.8660254  0.5000000  0.0000000 )
                  (  0.0000000  0.0000000 -1.0000000 )


      isym = 12     180 deg rotation - cryst. axis [1,1,0]       

 cryst.   s(12) = (     0          1          0      )
                  (     1          0          0      )
                  (     0          0         -1      )

 cart.    s(12) = ( -0.5000000  0.8660254  0.0000000 )
                  (  0.8660254  0.5000000  0.0000000 )
                  (  0.0000000  0.0000000 -1.0000000 )


      isym = 13     inversion                                    

 cryst.   s(13) = (    -1          0          0      )
                  (     0         -1          0      )
                  (     0          0         -1      )

 cart.    s(13) = ( -1.0000000  0.0000000  0.0000000 )
                  (  0.0000000 -1.0000000  0.0000000 )
                  (  0.0000000  0.0000000 -1.0000000 )


      isym = 14     inv. 180 deg rotation - cart. axis [0,0,1]   

 cryst.   s(14) = (     1          0          0      )    f =(  0.0000000 )
                  (     0          1          0      )       (  0.0000000 )
                  (     0          0         -1      )       (  0.5000000 )

 cart.    s(14) = (  1.0000000  0.0000000  0.0000000 )    f =(  0.0000000 )
                  (  0.0000000  1.0000000  0.0000000 )       (  0.0000000 )
                  (  0.0000000  0.0000000 -1.0000000 )       (  0.7920497 )


      isym = 15     inv. 180 deg rotation - cart. axis [0,1,0]   

 cryst.   s(15) = (     1          0          0      )    f =(  0.0000000 )
                  (    -1         -1          0      )       (  0.0000000 )
                  (     0          0          1      )       (  0.5000000 )

 cart.    s(15) = (  1.0000000 -0.0000000  0.0000000 )    f =(  0.0000000 )
                  (  0.0000000 -1.0000000  0.0000000 )       (  0.0000000 )
                  (  0.0000000  0.0000000  1.0000000 )       (  0.7920497 )


      isym = 16     inv. 180 deg rotation - cart. axis [1,0,0]   

 cryst.   s(16) = (    -1          0          0      )
                  (     1          1          0      )
                  (     0          0          1      )

 cart.    s(16) = ( -1.0000000  0.0000000  0.0000000 )
                  (  0.0000000  1.0000000  0.0000000 )
                  (  0.0000000  0.0000000  1.0000000 )


      isym = 17     inv.  60 deg rotation - cryst. axis [0,0,1]  

 cryst.   s(17) = (    -1         -1          0      )    f =(  0.0000000 )
                  (     1          0          0      )       (  0.0000000 )
                  (     0          0         -1      )       (  0.5000000 )

 cart.    s(17) = ( -0.5000000  0.8660254  0.0000000 )    f =(  0.0000000 )
                  ( -0.8660254 -0.5000000  0.0000000 )       (  0.0000000 )
                  (  0.0000000  0.0000000 -1.0000000 )       (  0.7920497 )


      isym = 18     inv.  60 deg rotation - cryst. axis [0,0,-1] 

 cryst.   s(18) = (     0          1          0      )    f =(  0.0000000 )
                  (    -1         -1          0      )       (  0.0000000 )
                  (     0          0         -1      )       (  0.5000000 )

 cart.    s(18) = ( -0.5000000 -0.8660254  0.0000000 )    f =(  0.0000000 )
                  (  0.8660254 -0.5000000  0.0000000 )       (  0.0000000 )
                  (  0.0000000  0.0000000 -1.0000000 )       (  0.7920497 )


      isym = 19     inv. 120 deg rotation - cryst. axis [0,0,1]  

 cryst.   s(19) = (     0         -1          0      )
                  (     1          1          0      )
                  (     0          0         -1      )

 cart.    s(19) = (  0.5000000  0.8660254  0.0000000 )
                  ( -0.8660254  0.5000000  0.0000000 )
                  (  0.0000000  0.0000000 -1.0000000 )


      isym = 20     inv. 120 deg rotation - cryst. axis [0,0,-1] 

 cryst.   s(20) = (     1          1          0      )
                  (    -1          0          0      )
                  (     0          0         -1      )

 cart.    s(20) = (  0.5000000 -0.8660254  0.0000000 )
                  (  0.8660254  0.5000000  0.0000000 )
                  (  0.0000000  0.0000000 -1.0000000 )


      isym = 21     inv. 180 deg rotation - cryst. axis [1,-1,0] 

 cryst.   s(21) = (     0          1          0      )    f =(  0.0000000 )
                  (     1          0          0      )       (  0.0000000 )
                  (     0          0          1      )       (  0.5000000 )

 cart.    s(21) = ( -0.5000000  0.8660254  0.0000000 )    f =(  0.0000000 )
                  (  0.8660254  0.5000000  0.0000000 )       (  0.0000000 )
                  (  0.0000000  0.0000000  1.0000000 )       (  0.7920497 )


      isym = 22     inv. 180 deg rotation - cryst. axis [2,1,0]  

 cryst.   s(22) = (    -1         -1          0      )    f =(  0.0000000 )
                  (     0          1          0      )       (  0.0000000 )
                  (     0          0          1      )       (  0.5000000 )

 cart.    s(22) = ( -0.5000000 -0.8660254  0.0000000 )    f =(  0.0000000 )
                  ( -0.8660254  0.5000000  0.0000000 )       (  0.0000000 )
                  (  0.0000000  0.0000000  1.0000000 )       (  0.7920497 )


      isym = 23     inv. 180 deg rotation - cryst. axis [0,1,0]  

 cryst.   s(23) = (     1          1          0      )
                  (     0         -1          0      )
                  (     0          0          1      )

 cart.    s(23) = (  0.5000000  0.8660254  0.0000000 )
                  (  0.8660254 -0.5000000  0.0000000 )
                  (  0.0000000  0.0000000  1.0000000 )


      isym = 24     inv. 180 deg rotation - cryst. axis [1,1,0]  

 cryst.   s(24) = (     0         -1          0      )
                  (    -1          0          0      )
                  (     0          0          1      )

 cart.    s(24) = (  0.5000000 -0.8660254  0.0000000 )
                  ( -0.8660254 -0.5000000  0.0000000 )
                  (  0.0000000  0.0000000  1.0000000 )


   Cartesian axes

     site n.     atom                  positions (alat units)
         1           Ti  tau(   1) = (   0.0000000   0.5773503   1.1880745  )
         2           Ti  tau(   2) = (   0.5000000   0.2886751   0.3960248  )

   Crystallographic axes

     site n.     atom                  positions (cryst. coord.)
         1           Ti  tau(   1) = (  0.3333333  0.6666667  0.7500000  )
         2           Ti  tau(   2) = (  0.6666667  0.3333333  0.2500000  )

     number of k points=    50  gaussian smearing, width (Ry)=  0.0010
                       cart. coord. in units 2pi/alat
        k(    1) = (   0.0000000   0.0000000   0.0000000), wk =   0.0400000
        k(    2) = (   0.0833333   0.0481125   0.0000000), wk =   0.0400000
        k(    3) = (   0.1666667   0.0962250   0.0000000), wk =   0.0400000
        k(    4) = (   0.2500000   0.1443376   0.0000000), wk =   0.0400000
        k(    5) = (   0.3333333   0.1924501   0.0000000), wk =   0.0400000
        k(    6) = (   0.4166667   0.2405626   0.0000000), wk =   0.0400000
        k(    7) = (   0.5000000   0.2886751   0.0000000), wk =   0.0400000
        k(    8) = (   0.4444444   0.3849002   0.0000000), wk =   0.0400000
        k(    9) = (   0.3888889   0.4811252   0.0000000), wk =   0.0400000
        k(   10) = (   0.3333333   0.5773503   0.0000000), wk =   0.0400000
        k(   11) = (   0.2916667   0.5051815   0.0000000), wk =   0.0400000
        k(   12) = (   0.2500000   0.4330127   0.0000000), wk =   0.0400000
        k(   13) = (   0.2083333   0.3608439   0.0000000), wk =   0.0400000
        k(   14) = (   0.1666667   0.2886751   0.0000000), wk =   0.0400000
        k(   15) = (   0.1250000   0.2165064   0.0000000), wk =   0.0400000
        k(   16) = (   0.0833333   0.1443376   0.0000000), wk =   0.0400000
        k(   17) = (   0.0416667   0.0721688   0.0000000), wk =   0.0400000
        k(   18) = (   0.0000000   0.0000000   0.0000000), wk =   0.0400000
        k(   19) = (   0.0000000   0.0000000   0.1052123), wk =   0.0400000
        k(   20) = (   0.0000000   0.0000000   0.2104245), wk =   0.0400000
        k(   21) = (   0.0000000   0.0000000   0.3156368), wk =   0.0400000
        k(   22) = (   0.0714286   0.0412393   0.3156368), wk =   0.0400000
        k(   23) = (   0.1428571   0.0824786   0.3156368), wk =   0.0400000
        k(   24) = (   0.2142857   0.1237179   0.3156368), wk =   0.0400000
        k(   25) = (   0.2857143   0.1649572   0.3156368), wk =   0.0400000
        k(   26) = (   0.3571429   0.2061965   0.3156368), wk =   0.0400000
        k(   27) = (   0.4285714   0.2474358   0.3156368), wk =   0.0400000
        k(   28) = (   0.5000000   0.2886751   0.3156368), wk =   0.0400000
        k(   29) = (   0.4583333   0.3608439   0.3156368), wk =   0.0400000
        k(   30) = (   0.4166667   0.4330127   0.3156368), wk =   0.0400000
        k(   31) = (   0.3750000   0.5051815   0.3156368), wk =   0.0400000
        k(   32) = (   0.3333333   0.5773503   0.3156368), wk =   0.0400000
        k(   33) = (   0.2962963   0.5132002   0.3156368), wk =   0.0400000
        k(   34) = (   0.2592593   0.4490502   0.3156368), wk =   0.0400000
        k(   35) = (   0.2222222   0.3849002   0.3156368), wk =   0.0400000
        k(   36) = (   0.1851852   0.3207501   0.3156368), wk =   0.0400000
        k(   37) = (   0.1481481   0.2566001   0.3156368), wk =   0.0400000
        k(   38) = (   0.1111111   0.1924501   0.3156368), wk =   0.0400000
        k(   39) = (   0.0740741   0.1283001   0.3156368), wk =   0.0400000
        k(   40) = (   0.0370370   0.0641500   0.3156368), wk =   0.0400000
        k(   41) = (   0.0000000   0.0000000   0.3156368), wk =   0.0400000
        k(   42) = (   0.5000000   0.2886751   0.3156368), wk =   0.0400000
        k(   43) = (   0.5000000   0.2886751   0.2104245), wk =   0.0400000
        k(   44) = (   0.5000000   0.2886751   0.1052123), wk =   0.0400000
        k(   45) = (   0.5000000   0.2886751   0.0000000), wk =   0.0400000
        k(   46) = (   0.3333333   0.5773503   0.0000000), wk =   0.0400000
        k(   47) = (   0.3333333   0.5773503   0.0789092), wk =   0.0400000
        k(   48) = (   0.3333333   0.5773503   0.1578184), wk =   0.0400000
        k(   49) = (   0.3333333   0.5773503   0.2367276), wk =   0.0400000
        k(   50) = (   0.3333333   0.5773503   0.3156368), wk =   0.0400000

                       cryst. coord.
        k(    1) = (   0.0000000   0.0000000   0.0000000), wk =   0.0400000
        k(    2) = (   0.0833333   0.0000000   0.0000000), wk =   0.0400000
        k(    3) = (   0.1666667   0.0000000   0.0000000), wk =   0.0400000
        k(    4) = (   0.2500000   0.0000000   0.0000000), wk =   0.0400000
        k(    5) = (   0.3333333   0.0000000   0.0000000), wk =   0.0400000
        k(    6) = (   0.4166667   0.0000000   0.0000000), wk =   0.0400000
        k(    7) = (   0.5000000   0.0000000   0.0000000), wk =   0.0400000
        k(    8) = (   0.4444444   0.1111111   0.0000000), wk =   0.0400000
        k(    9) = (   0.3888889   0.2222222   0.0000000), wk =   0.0400000
        k(   10) = (   0.3333333   0.3333333   0.0000000), wk =   0.0400000
        k(   11) = (   0.2916667   0.2916667   0.0000000), wk =   0.0400000
        k(   12) = (   0.2500000   0.2500000   0.0000000), wk =   0.0400000
        k(   13) = (   0.2083333   0.2083333   0.0000000), wk =   0.0400000
        k(   14) = (   0.1666667   0.1666667   0.0000000), wk =   0.0400000
        k(   15) = (   0.1250000   0.1250000   0.0000000), wk =   0.0400000
        k(   16) = (   0.0833333   0.0833333   0.0000000), wk =   0.0400000
        k(   17) = (   0.0416667   0.0416667   0.0000000), wk =   0.0400000
        k(   18) = (   0.0000000   0.0000000   0.0000000), wk =   0.0400000
        k(   19) = (   0.0000000   0.0000000   0.1666667), wk =   0.0400000
        k(   20) = (   0.0000000   0.0000000   0.3333333), wk =   0.0400000
        k(   21) = (   0.0000000   0.0000000   0.5000000), wk =   0.0400000
        k(   22) = (   0.0714286   0.0000000   0.5000000), wk =   0.0400000
        k(   23) = (   0.1428571   0.0000000   0.5000000), wk =   0.0400000
        k(   24) = (   0.2142857   0.0000000   0.5000000), wk =   0.0400000
        k(   25) = (   0.2857143   0.0000000   0.5000000), wk =   0.0400000
        k(   26) = (   0.3571429   0.0000000   0.5000000), wk =   0.0400000
        k(   27) = (   0.4285714   0.0000000   0.5000000), wk =   0.0400000
        k(   28) = (   0.5000000   0.0000000   0.5000000), wk =   0.0400000
        k(   29) = (   0.4583333   0.0833333   0.5000000), wk =   0.0400000
        k(   30) = (   0.4166667   0.1666667   0.5000000), wk =   0.0400000
        k(   31) = (   0.3750000   0.2500000   0.5000000), wk =   0.0400000
        k(   32) = (   0.3333333   0.3333333   0.5000000), wk =   0.0400000
        k(   33) = (   0.2962963   0.2962963   0.5000000), wk =   0.0400000
        k(   34) = (   0.2592593   0.2592593   0.5000000), wk =   0.0400000
        k(   35) = (   0.2222222   0.2222222   0.5000000), wk =   0.0400000
        k(   36) = (   0.1851852   0.1851852   0.5000000), wk =   0.0400000
        k(   37) = (   0.1481481   0.1481481   0.5000000), wk =   0.0400000
        k(   38) = (   0.1111111   0.1111111   0.5000000), wk =   0.0400000
        k(   39) = (   0.0740741   0.0740741   0.5000000), wk =   0.0400000
        k(   40) = (   0.0370370   0.0370370   0.5000000), wk =   0.0400000
        k(   41) = (   0.0000000   0.0000000   0.5000000), wk =   0.0400000
        k(   42) = (   0.5000000   0.0000000   0.5000000), wk =   0.0400000
        k(   43) = (   0.5000000   0.0000000   0.3333333), wk =   0.0400000
        k(   44) = (   0.5000000   0.0000000   0.1666667), wk =   0.0400000
        k(   45) = (   0.5000000   0.0000000   0.0000000), wk =   0.0400000
        k(   46) = (   0.3333333   0.3333333   0.0000000), wk =   0.0400000
        k(   47) = (   0.3333333   0.3333333   0.1250000), wk =   0.0400000
        k(   48) = (   0.3333333   0.3333333   0.2500000), wk =   0.0400000
        k(   49) = (   0.3333333   0.3333333   0.3750000), wk =   0.0400000
        k(   50) = (   0.3333333   0.3333333   0.5000000), wk =   0.0400000

     Dense  grid:    11247 G-vectors     FFT dimensions: (  25,  25,  40)

     Smooth grid:     8003 G-vectors     FFT dimensions: (  24,  24,  36)

     Estimated max dynamical RAM per process >      18.21Mb

     Check: negative/imaginary core charge=   -0.000009    0.000000

     The potential is recalculated from file :
     ./pwscf.save/charge-density.dat


     negative rho (up, down):  1.297E-03 0.000E+00
     Starting wfc are   20 randomized atomic wfcs

     Band Structure Calculation
     Davidson diagonalization with overlap

     Computing kpt #:     1
     total cpu time spent up to now is        1.0 secs

     Computing kpt #:     2
     total cpu time spent up to now is        1.3 secs

     Computing kpt #:     3
     total cpu time spent up to now is        1.8 secs

     Computing kpt #:     4
     total cpu time spent up to now is        2.2 secs

     Computing kpt #:     5
     total cpu time spent up to now is        2.6 secs

     Computing kpt #:     6
     total cpu time spent up to now is        3.0 secs

     Computing kpt #:     7
     total cpu time spent up to now is        3.4 secs

     Computing kpt #:     8
     total cpu time spent up to now is        3.8 secs

     Computing kpt #:     9
     total cpu time spent up to now is        4.2 secs

     Computing kpt #:    10
     total cpu time spent up to now is        4.6 secs

     Computing kpt #:    11
     total cpu time spent up to now is        5.0 secs

     Computing kpt #:    12
     total cpu time spent up to now is        5.3 secs

     Computing kpt #:    13
     total cpu time spent up to now is        5.7 secs

     Computing kpt #:    14
     total cpu time spent up to now is        6.1 secs

     Computing kpt #:    15
     total cpu time spent up to now is        6.6 secs

     Computing kpt #:    16
     total cpu time spent up to now is        7.0 secs

     Computing kpt #:    17
     total cpu time spent up to now is        7.4 secs

     Computing kpt #:    18
     total cpu time spent up to now is        7.8 secs

     Computing kpt #:    19
     total cpu time spent up to now is        8.2 secs

     Computing kpt #:    20
     total cpu time spent up to now is        8.5 secs

     Computing kpt #:    21
     total cpu time spent up to now is        8.8 secs

     Computing kpt #:    22
     total cpu time spent up to now is        9.2 secs

     Computing kpt #:    23
     total cpu time spent up to now is        9.5 secs

     Computing kpt #:    24
     total cpu time spent up to now is        9.9 secs

     Computing kpt #:    25
     total cpu time spent up to now is       10.3 secs

     Computing kpt #:    26
     total cpu time spent up to now is       10.7 secs

     Computing kpt #:    27
     total cpu time spent up to now is       11.1 secs

     Computing kpt #:    28
     total cpu time spent up to now is       11.5 secs

     Computing kpt #:    29
     total cpu time spent up to now is       11.8 secs

     Computing kpt #:    30
     total cpu time spent up to now is       12.2 secs

     Computing kpt #:    31
     total cpu time spent up to now is       12.6 secs

     Computing kpt #:    32
     total cpu time spent up to now is       12.9 secs

     Computing kpt #:    33
     total cpu time spent up to now is       13.3 secs

     Computing kpt #:    34
     total cpu time spent up to now is       13.7 secs

     Computing kpt #:    35
     total cpu time spent up to now is       14.1 secs

     Computing kpt #:    36
     total cpu time spent up to now is       14.5 secs

     Computing kpt #:    37
     total cpu time spent up to now is       14.8 secs

     Computing kpt #:    38
     total cpu time spent up to now is       15.2 secs

     Computing kpt #:    39
     total cpu time spent up to now is       15.6 secs

     Computing kpt #:    40
     total cpu time spent up to now is       15.9 secs

     Computing kpt #:    41
     total cpu time spent up to now is       16.2 secs

     Computing kpt #:    42
     total cpu time spent up to now is       16.6 secs

     Computing kpt #:    43
     total cpu time spent up to now is       17.0 secs

     Computing kpt #:    44
     total cpu time spent up to now is       17.4 secs

     Computing kpt #:    45
     total cpu time spent up to now is       17.8 secs

     Computing kpt #:    46
     total cpu time spent up to now is       18.2 secs

     Computing kpt #:    47
     total cpu time spent up to now is       18.6 secs

     Computing kpt #:    48
     total cpu time spent up to now is       18.9 secs

     Computing kpt #:    49
     total cpu time spent up to now is       19.3 secs

     Computing kpt #:    50
     total cpu time spent up to now is       19.7 secs

     ethr =  4.17E-10,  avg # of iterations = 14.7

     total cpu time spent up to now is       19.7 secs

     End of band structure calculation

          k = 0.0000 0.0000 0.0000 (   989 PWs)   bands (ev):

   -43.4153 -43.2774 -20.0157 -19.3726 -19.3726 -19.3042 -19.2715 -19.2715
     7.2136  10.7220  14.1620  14.1861  14.1862  14.3000  14.6865  14.6865

          k = 0.0833 0.0481 0.0000 (  1023 PWs)   bands (ev):

   -43.4084 -43.2747 -20.0004 -19.4039 -19.3831 -19.3107 -19.3041 -19.2756
     7.4082  10.8748  13.8055  13.8606  14.3237  14.5296  14.6078  14.8089

          k = 0.1667 0.0962 0.0000 (  1016 PWs)   bands (ev):

   -43.3892 -43.2676 -19.9568 -19.4898 -19.4107 -19.3912 -19.3304 -19.2876
     7.9672  11.2688  13.1240  13.3944  14.3246  14.6770  14.7099  14.7198

          k = 0.2500 0.1443 0.0000 (  1006 PWs)   bands (ev):

   -43.3618 -43.2591 -19.8911 -19.6083 -19.5060 -19.4469 -19.3631 -19.3053
     8.8109  11.6577  12.4778  12.9829  14.1288  14.3816  14.4676  15.3190

          k = 0.3333 0.1925 0.0000 (  1000 PWs)   bands (ev):

   -43.3321 -43.2528 -19.8139 -19.7278 -19.6167 -19.4818 -19.4072 -19.3240
     9.7853  11.6771  11.9776  12.7997  14.1246  14.2202  14.2456  16.0057

          k = 0.4167 0.2406 0.0000 (   988 PWs)   bands (ev):

   -43.3073 -43.2511 -19.8155 -19.7420 -19.6954 -19.5068 -19.4548 -19.3382
    10.6337  11.4534  11.6646  12.7580  13.9532  14.0921  14.4770  16.5606

          k = 0.5000 0.2887 0.0000 (  1000 PWs)   bands (ev):

   -43.2968 -43.2520 -19.8475 -19.7239 -19.7082 -19.5158 -19.4798 -19.3434
    11.0659  11.2458  11.5582  12.7728  13.8933  14.0375  14.5880  16.7639

          k = 0.4444 0.3849 0.0000 (   986 PWs)   bands (ev):

   -43.2921 -43.2526 -19.8310 -19.7085 -19.6927 -19.5457 -19.4915 -19.3799
    11.2502  11.4291  11.6022  12.6303  13.7933  13.9791  14.6342  16.7362

          k = 0.3889 0.4811 0.0000 (   990 PWs)   bands (ev):

   -43.2799 -43.2559 -19.7883 -19.6692 -19.6492 -19.6138 -19.5268 -19.4674
    11.6684  11.6868  11.8418  12.3219  13.6241  13.8211  14.7814  16.4151

          k = 0.3333 0.5774 0.0000 (   984 PWs)   bands (ev):

   -43.2653 -43.2653 -19.7579 -19.6473 -19.6473 -19.5856 -19.5856 -19.5279
    11.7187  12.0166  12.0166  12.1048  13.6387  13.6387  14.9121  16.4807

          k = 0.2917 0.5052 0.0000 (   998 PWs)   bands (ev):

   -43.2784 -43.2565 -19.7631 -19.6762 -19.6437 -19.6088 -19.5314 -19.4988
    11.7229  11.7310  12.0566  12.1439  13.5582  13.8211  14.8068  16.2249

          k = 0.2500 0.4330 0.0000 (  1002 PWs)   bands (ev):

   -43.2972 -43.2516 -19.7467 -19.7109 -19.6914 -19.5520 -19.4770 -19.4471
    11.0966  11.7862  12.1007  12.1900  13.5740  14.0861  14.5457  15.9235

          k = 0.2083 0.3608 0.0000 (   996 PWs)   bands (ev):

   -43.3210 -43.2514 -19.7831 -19.6917 -19.6701 -19.4951 -19.4265 -19.3948
    10.2207  11.9663  12.1491  12.3013  13.7062  14.2657  14.3613  15.6029

          k = 0.1667 0.2887 0.0000 (  1015 PWs)   bands (ev):

   -43.3474 -43.2556 -19.8547 -19.6138 -19.6033 -19.4441 -19.3830 -19.3490
     9.2937  11.9468  12.2890  12.6352  13.9508  14.1323  14.5973  15.2888

          k = 0.1250 0.2165 0.0000 (  1009 PWs)   bands (ev):

   -43.3734 -43.2625 -19.9194 -19.5359 -19.4999 -19.3997 -19.3485 -19.3128
     8.4514  11.5718  12.7512  13.0603  14.2134  14.2780  14.7731  15.0015

          k = 0.0833 0.1443 0.0000 (  1015 PWs)   bands (ev):

   -43.3954 -43.2698 -19.9709 -19.4561 -19.4163 -19.3517 -19.3238 -19.2880
     7.7856  11.1526  13.3184  13.5120  14.4143  14.6077  14.6311  14.7480

          k = 0.0417 0.0722 0.0000 (  1017 PWs)   bands (ev):

   -43.4101 -43.2753 -20.0042 -19.3957 -19.3812 -19.3091 -19.2956 -19.2750
     7.3600  10.8376  13.8852  13.9165  14.2901  14.5090  14.6106  14.7809

          k = 0.0000 0.0000 0.0000 (   989 PWs)   bands (ev):

   -43.4153 -43.2774 -20.0157 -19.3726 -19.3726 -19.3042 -19.2715 -19.2715
     7.2136  10.7220  14.1620  14.1861  14.1862  14.3000  14.6865  14.6865

          k = 0.0000 0.0000 0.1052 (  1032 PWs)   bands (ev):

   -43.4062 -43.2867 -19.9698 -19.3659 -19.3659 -19.3538 -19.2783 -19.2783
     7.4469  10.5914  13.8087  14.0914  14.0914  14.1718  14.5642  14.5642

          k = 0.0000 0.0000 0.2104 (  1020 PWs)   bands (ev):

   -43.3811 -43.3122 -19.8432 -19.4877 -19.3475 -19.3475 -19.2969 -19.2969
     8.1087  10.0343  13.4037  13.8450  14.0148  14.0148  14.3085  14.3085

          k = 0.0000 0.0000 0.3156 (  1014 PWs)   bands (ev):

   -43.3468 -43.3468 -19.6673 -19.6673 -19.3222 -19.3222 -19.3222 -19.3222
     9.0684   9.0684  13.4924  13.4924  14.0920  14.0920  14.0920  14.0920

          k = 0.0714 0.0412 0.3156 (  1010 PWs)   bands (ev):

   -43.3432 -43.3432 -19.6706 -19.6706 -19.3387 -19.3387 -19.3276 -19.3276
     9.1901   9.1901  13.3967  13.3967  14.0722  14.0722  14.1699  14.1699

          k = 0.1429 0.0825 0.3156 (  1010 PWs)   bands (ev):

   -43.3332 -43.3332 -19.6844 -19.6844 -19.3799 -19.3799 -19.3427 -19.3427
     9.5306   9.5306  13.1855  13.1855  13.9809  13.9809  14.3862  14.3862

          k = 0.2143 0.1237 0.3156 (  1008 PWs)   bands (ev):

   -43.3187 -43.3187 -19.7185 -19.7185 -19.4245 -19.4245 -19.3645 -19.3645
    10.0081  10.0081  12.9685  12.9685  13.8540  13.8540  14.6820  14.6820

          k = 0.2857 0.1650 0.3156 (  1004 PWs)   bands (ev):

   -43.3026 -43.3026 -19.7768 -19.7768 -19.4523 -19.4523 -19.3885 -19.3885
    10.4685  10.4685  12.8074  12.8074  13.8470  13.8470  14.9494  14.9494

          k = 0.3571 0.2062 0.3156 (   994 PWs)   bands (ev):

   -43.2881 -43.2881 -19.8430 -19.8430 -19.4626 -19.4626 -19.4101 -19.4101
    10.7501  10.7501  12.6977  12.6977  14.1119  14.1119  15.0941  15.0941

          k = 0.4286 0.2474 0.3156 (  1000 PWs)   bands (ev):

   -43.2780 -43.2780 -19.8936 -19.8936 -19.4644 -19.4644 -19.4249 -19.4249
    10.8476  10.8476  12.6215  12.6215  14.5258  14.5258  15.1384  15.1384

          k = 0.5000 0.2887 0.3156 (  1000 PWs)   bands (ev):

   -43.2743 -43.2743 -19.9123 -19.9123 -19.4644 -19.4644 -19.4302 -19.4302
    10.8641  10.8641  12.5931  12.5931  14.7269  14.7269  15.1454  15.1454

          k = 0.4583 0.3608 0.3156 (   994 PWs)   bands (ev):

   -43.2731 -43.2731 -19.9029 -19.9029 -19.4944 -19.4944 -19.4184 -19.4184
    10.9787  10.9787  12.6559  12.6559  14.2398  14.2398  15.3319  15.3319

          k = 0.4167 0.4330 0.3156 (  1000 PWs)   bands (ev):

   -43.2701 -43.2701 -19.8772 -19.8772 -19.5531 -19.5531 -19.4074 -19.4074
    11.2961  11.2961  12.8056  12.8056  13.5623  13.5623  15.2713  15.2713

          k = 0.3750 0.5052 0.3156 (   998 PWs)   bands (ev):

   -43.2668 -43.2668 -19.8449 -19.8449 -19.6150 -19.6150 -19.4016 -19.4016
    11.7447  11.7447  12.7374  12.7374  13.1714  13.1714  15.1247  15.1247

          k = 0.3333 0.5774 0.3156 (  1026 PWs)   bands (ev):

   -43.2653 -43.2653 -19.8287 -19.8287 -19.6440 -19.6440 -19.3998 -19.3998
    12.1590  12.1590  12.3324  12.3324  13.1863  13.1863  15.0899  15.0899

          k = 0.2963 0.5132 0.3156 (  1004 PWs)   bands (ev):

   -43.2669 -43.2669 -19.8370 -19.8370 -19.6231 -19.6231 -19.4010 -19.4010
    11.8423  11.8423  12.6362  12.6362  13.1773  13.1773  15.0632  15.0632

          k = 0.2593 0.4491 0.3156 (  1004 PWs)   bands (ev):

   -43.2724 -43.2724 -19.8420 -19.8420 -19.5785 -19.5785 -19.4034 -19.4034
    11.5089  11.5089  12.8235  12.8235  13.2484  13.2484  14.9734  14.9734

          k = 0.2222 0.3849 0.3156 (   996 PWs)   bands (ev):

   -43.2818 -43.2818 -19.8262 -19.8262 -19.5295 -19.5295 -19.4042 -19.4042
    11.1832  11.1832  12.8364  12.8364  13.3893  13.3893  14.9209  14.9209

          k = 0.1852 0.3208 0.3156 (  1000 PWs)   bands (ev):

   -43.2945 -43.2945 -19.7896 -19.7896 -19.4859 -19.4859 -19.3982 -19.3982
    10.8027  10.8027  12.8334  12.8334  13.5152  13.5152  14.9236  14.9236

          k = 0.1481 0.2566 0.3156 (  1004 PWs)   bands (ev):

   -43.3090 -43.3090 -19.7435 -19.7435 -19.4494 -19.4494 -19.3816 -19.3816
    10.3452  10.3452  12.8939  12.8939  13.6684  13.6684  14.8374  14.8374

          k = 0.1111 0.1925 0.3156 (  1008 PWs)   bands (ev):

   -43.3235 -43.3235 -19.7039 -19.7039 -19.4119 -19.4119 -19.3593 -19.3593
     9.8644   9.8644  13.0381  13.0381  13.8467  13.8467  14.5995  14.5995

          k = 0.0741 0.1283 0.3156 (  1010 PWs)   bands (ev):

   -43.3357 -43.3357 -19.6802 -19.6802 -19.3701 -19.3701 -19.3395 -19.3395
     9.4472   9.4472  13.2331  13.2331  13.9982  13.9982  14.3373  14.3373

          k = 0.0370 0.0642 0.3156 (  1010 PWs)   bands (ev):

   -43.3439 -43.3439 -19.6699 -19.6699 -19.3356 -19.3356 -19.3266 -19.3266
     9.1669   9.1669  13.4139  13.4139  14.0765  14.0765  14.1554  14.1554

          k = 0.0000 0.0000 0.3156 (  1014 PWs)   bands (ev):

   -43.3468 -43.3468 -19.6673 -19.6673 -19.3222 -19.3222 -19.3222 -19.3222
     9.0684   9.0684  13.4924  13.4924  14.0920  14.0920  14.0920  14.0920

          k = 0.5000 0.2887 0.3156 (  1000 PWs)   bands (ev):

   -43.2743 -43.2743 -19.9123 -19.9123 -19.4644 -19.4644 -19.4302 -19.4302
    10.8641  10.8641  12.5931  12.5931  14.7269  14.7269  15.1454  15.1454

          k = 0.5000 0.2887 0.2104 (  1002 PWs)   bands (ev):

   -43.2856 -43.2631 -19.9257 -19.8518 -19.5397 -19.4732 -19.4375 -19.3870
    10.7204  11.1486  12.3479  12.5852  14.3264  14.4784  14.9966  15.9356

          k = 0.5000 0.2887 0.1052 (   996 PWs)   bands (ev):

   -43.2938 -43.2550 -19.8898 -19.7697 -19.6416 -19.5044 -19.4567 -19.3551
    10.8334  11.2686  12.0114  12.4849  14.0436  14.4621  14.4648  16.6206

          k = 0.5000 0.2887 0.0000 (  1000 PWs)   bands (ev):

   -43.2968 -43.2520 -19.8475 -19.7239 -19.7082 -19.5158 -19.4798 -19.3434
    11.0659  11.2458  11.5582  12.7728  13.8933  14.0375  14.5880  16.7639

          k = 0.3333 0.5774 0.0000 (   984 PWs)   bands (ev):

   -43.2653 -43.2653 -19.7579 -19.6473 -19.6473 -19.5856 -19.5856 -19.5279
    11.7187  12.0166  12.0166  12.1048  13.6387  13.6387  14.9121  16.4807

          k = 0.3333 0.5774 0.0789 (   987 PWs)   bands (ev):

   -43.2653 -43.2653 -19.7493 -19.7030 -19.7030 -19.5368 -19.5293 -19.5293
    11.7671  12.0533  12.0533  12.1218  13.5782  13.5782  14.8946  16.4808

          k = 0.3333 0.5774 0.1578 (  1002 PWs)   bands (ev):

   -43.2653 -43.2653 -19.7685 -19.7685 -19.7248 -19.5621 -19.4622 -19.4622
    11.8944  12.1518  12.1518  12.1613  13.4281  13.4281  14.8683  15.9753

          k = 0.3333 0.5774 0.2367 (  1005 PWs)   bands (ev):

   -43.2653 -43.2653 -19.8130 -19.8130 -19.6879 -19.5998 -19.4161 -19.4161
    12.0482  12.1893  12.2718  12.2718  13.2636  13.2636  14.9044  15.4642

          k = 0.3333 0.5774 0.3156 (  1026 PWs)   bands (ev):

   -43.2653 -43.2653 -19.8287 -19.8287 -19.6440 -19.6440 -19.3998 -19.3998
    12.1590  12.1590  12.3324  12.3324  13.1863  13.1863  15.0899  15.0899

     Writing output data file pwscf.save

     init_run     :      0.66s CPU      0.48s WALL (       1 calls)
     electrons    :     41.05s CPU     19.04s WALL (       1 calls)

     Called by init_run:
     wfcinit      :      0.00s CPU      0.00s WALL (       1 calls)
     wfcinit:atom :      0.11s CPU      0.04s WALL (      50 calls)
     wfcinit:wfcr :      3.73s CPU      1.71s WALL (      50 calls)
     potinit      :      0.03s CPU      0.03s WALL (       1 calls)

     Called by electrons:
     c_bands      :     41.05s CPU     19.04s WALL (       1 calls)
     v_of_rho     :      0.03s CPU      0.02s WALL (       1 calls)
     v_h          :      0.02s CPU      0.00s WALL (       1 calls)
     v_xc         :      0.02s CPU      0.02s WALL (       1 calls)
     newd         :      0.03s CPU      0.07s WALL (       1 calls)

     Called by c_bands:
     init_us_2    :      0.11s CPU      0.05s WALL (      50 calls)
     cegterg      :     36.44s CPU     16.82s WALL (      52 calls)

     Called by sum_band:

     Called by *egterg:
     h_psi        :     32.23s CPU     14.79s WALL (     838 calls)
     s_psi        :      0.56s CPU      0.19s WALL (     838 calls)
     g_psi        :      0.11s CPU      0.10s WALL (     736 calls)
     cdiaghg      :      4.70s CPU      2.24s WALL (     786 calls)
     cegterg:over :      1.16s CPU      0.44s WALL (     736 calls)
     cegterg:upda :      0.89s CPU      0.40s WALL (     736 calls)
     cegterg:last :      0.19s CPU      0.13s WALL (     171 calls)

     Called by h_psi:
     h_psi:pot    :     32.17s CPU     14.71s WALL (     838 calls)
     h_psi:calbec :      0.52s CPU      0.24s WALL (     838 calls)
     vloc_psi     :     30.94s CPU     14.22s WALL (     838 calls)
     add_vuspsi   :      0.64s CPU      0.23s WALL (     838 calls)

     General routines
     calbec       :      0.52s CPU      0.23s WALL (     838 calls)
     fft          :      0.00s CPU      0.01s WALL (      13 calls)
     ffts         :      0.00s CPU      0.01s WALL (       1 calls)
     fftw         :     28.72s CPU     13.09s WALL (   17842 calls)
     interpolate  :      0.00s CPU      0.01s WALL (       1 calls)
     davcio       :      0.00s CPU      0.01s WALL (      50 calls)

     Parallel routines
     fft_scatter  :      1.23s CPU      0.66s WALL (   17856 calls)

     PWSCF        :    42.16s CPU        19.93s WALL


   This run was terminated on:  11: 8:22  26Feb2021            

=------------------------------------------------------------------------------=
   JOB DONE.
=------------------------------------------------------------------------------=
