element =  C
struct =  hcp
nbands =  -4
path =  GMKGALHA,LM,KH
kpts =  (8,8,4)

  ___ ___ ___ _ _ _  
 |   |   |_  | | | | 
 | | | | | . | | | | 
 |__ |  _|___|_____|  1.3.1b1
 |___|_|             

User:   inukai@DESKTOP-12SE80T
Date:   Sat Feb 13 17:02:15 2021
Arch:   x86_64
Pid:    6543
Python: 3.6.9
gpaw:   /usr/lib/python3/dist-packages/gpaw
_gpaw:  /usr/lib/python3/dist-packages/_gpaw.cpython-36m-x86_64-linux-gnu.so
ase:    /home/inukai/hotcent/ase-3.19.3/ase (version 3.19.3)
numpy:  /home/inukai/.local/lib/python3.6/site-packages/numpy (version 1.19.5)
scipy:  /home/inukai/.local/lib/python3.6/site-packages/scipy (version 1.5.4)
units:  Angstrom and eV
cores:  1

Input parameters:
  kpts: [8 8 4]
  maxiter: 1500
  mixer: {backend: pulay,
          beta: 0.05,
          method: separate,
          nmaxold: 5,
          weight: 50}
  mode: {ecut: 400.0,
         name: pw}
  occupations: {name: fermi-dirac,
                width: 0.02}
  spinpol: True
  xc: PBE

System changes: positions, numbers, cell, pbc, initial_charges, initial_magmoms 

Initialize ...

C-setup:
  name: Carbon
  id: 4aa54d4b901d75f77cc0ea3eec22967b
  Z: 6
  valence: 4
  core: 2
  charge: 0.0
  file: /usr/share/gpaw-setups/C.PBE.gz
  cutoffs: 0.64(comp), 1.14(filt), 1.14(core), lmax=2
  valence states:
                energy  radius
    2s(2.00)   -13.751   0.635
    2p(2.00)    -5.284   0.635
    *s          13.461   0.635
    *p          21.927   0.635
    *d           0.000   0.635

  Using partial waves for C as LCAO basis

Reference energy: -4110.512462

Spin-polarized calculation.
Magnetic moment:  0.000000

Occupation numbers:
  Fermi-Dirac: width=0.0200 eV

Convergence criteria:
  Maximum total energy change: 0.0005 eV / electron
  Maximum integral of absolute density change: 0.0001 electrons
  Maximum integral of absolute eigenstate change: 4e-08 eV^2
  Maximum number of iterations: 1500

Symmetries present (total): 12

  ( 1  1  0)  ( 1  1  0)  ( 1  0  0)  ( 1  0  0)  ( 0  1  0)  ( 0  1  0)
  ( 0 -1  0)  (-1  0  0)  ( 0  1  0)  (-1 -1  0)  ( 1  0  0)  (-1 -1  0)
  ( 0  0  1)  ( 0  0 -1)  ( 0  0  1)  ( 0  0 -1)  ( 0  0 -1)  ( 0  0  1)

  ( 0 -1  0)  ( 0 -1  0)  (-1  0  0)  (-1  0  0)  (-1 -1  0)  (-1 -1  0)
  ( 1  1  0)  (-1  0  0)  ( 1  1  0)  ( 0 -1  0)  ( 1  0  0)  ( 0  1  0)
  ( 0  0 -1)  ( 0  0  1)  ( 0  0  1)  ( 0  0 -1)  ( 0  0  1)  ( 0  0 -1)
Note: your k-points are not as symmetric as your crystal!

256 k-points: 8 x 8 x 4 Monkhorst-Pack grid
72 k-points in the irreducible part of the Brillouin zone
       k-points in crystal coordinates                weights
   0:     0.06250000   -0.06250000   -0.37500000          2/256
   1:     0.06250000   -0.06250000   -0.12500000          2/256
   2:     0.06250000   -0.06250000    0.12500000          2/256
   3:     0.06250000   -0.06250000    0.37500000          2/256
   4:     0.06250000    0.06250000    0.12500000          4/256
   5:     0.06250000    0.06250000    0.37500000          4/256
   6:     0.18750000   -0.18750000   -0.37500000          2/256
   7:     0.18750000   -0.18750000   -0.12500000          2/256
   8:     0.18750000   -0.18750000    0.12500000          2/256
   9:     0.18750000   -0.18750000    0.37500000          2/256
          ...
  71:     0.43750000    0.43750000    0.37500000          4/256

Wave functions: Plane wave expansion
  Cutoff energy: 400.000 eV
  Number of coefficients (min, max): 814, 858
  Using FFTW library
  Eigensolver: None  MatrixOperator buffer_size: default value or 
                              see value of nblock in input file
Diagonalizer layout: Serial LAPACKOrthonormalizer layout: Serial LAPACK 

Davidson(niter=1, smin=None, normalize=True) 

Densities:
  Coarse grid: 10*10*42 grid
  Fine grid: 20*20*84 grid
  Total Charge: 0.000000 

Density mixing:
  Method: separate
  Backend: pulay
  Linear mixing parameter: 0.05
  Mixing with 5 old densities
  Damping of long wave oscillations: 50 

Hamiltonian:
  XC and Coulomb potentials evaluated on a 20*20*84 grid
  Using the PBE Exchange-Correlation functional
 

Memory estimate:
  Process memory now: 929.02 MiB
  Calculator: 43.10 MiB
    Density: 2.36 MiB
      Arrays: 1.12 MiB
      Localized functions: 0.60 MiB
      Mixer: 0.64 MiB
    Hamiltonian: 0.85 MiB
      Arrays: 0.83 MiB
      XC: 0.00 MiB
      Poisson: 0.00 MiB
      vbar: 0.01 MiB
    Wavefunctions: 39.89 MiB
      Arrays psit_nG: 30.16 MiB
      Eigensolver: 0.31 MiB
      Projections: 1.83 MiB
      Projectors: 6.51 MiB
      Overlap op: 0.21 MiB
      PW-descriptor: 0.86 MiB

Total number of cores used: 1

Number of atoms: 4
Number of atomic orbitals: 16
Number of bands in calculation: 16
Bands to converge: occupied states only
Number of valence electrons: 16

... initialized

Initializing position-dependent things.

Density initialized from atomic densities
Creating initial wave functions:
  16 bands from LCAO basis set

                    
                    
                    
        C           
       C            
                    
                    
                    
                    
           C        
       C            
                    
                    
                    

Positions:
   0 C      0.000000    0.000000    6.630590
   1 C      0.000000    0.000000    2.210197
   2 C     -0.000000    1.425229    6.630590
   3 C      1.234285    0.712614    2.210197

Unit cell:
           periodic     x           y           z      points  spacing
  1. axis:    yes    2.468569    0.000000    0.000000    10     0.2138
  2. axis:    yes   -1.234284    2.137843    0.000000    10     0.2138
  3. axis:    yes    0.000000    0.000000    8.840787    42     0.2105

  Lengths:   2.468569   2.468569   8.840787
  Angles:   90.000000  90.000000 120.000000

Effective grid spacing dv^(1/3) = 0.2231

                     log10-error:    total        iterations:
           time      wfs    density  energy       fermi  poisson  magmom
iter:   1  17:02:28  +1.87   +inf   -37.580337    0               -0.0000
iter:   2  17:02:33  +0.64   +inf   -38.443149    0               -0.0000
iter:   3  17:02:38  -0.35   +inf   -38.510190    0               +0.0000
iter:   4  17:02:44  -1.20  -0.79   -38.225134    0               -0.0000
iter:   5  17:02:50  +0.33  -0.82   -36.682635    2               +0.0000
iter:   6  17:02:56  -0.65  -1.33   -36.910845    2               +0.0000
iter:   7  17:03:02  -1.54  -1.19   -37.016013    5               +0.0000
iter:   8  17:03:09  -0.92  -1.14   -36.579598    10              +0.0000
iter:   9  17:03:15  -1.15  -1.53   -36.509823    10              +0.0000
iter:  10  17:03:21  -2.40  -2.04   -36.510979    0               +0.0000
iter:  11  17:03:27  -2.77  -2.10   -36.509910    0               +0.0000
iter:  12  17:03:33  -3.66  -2.44   -36.509964    0               +0.0000
iter:  13  17:03:39  -3.75  -2.41   -36.510032    0               -0.0000
iter:  14  17:03:45  -4.55  -2.77   -36.510071    0               -0.0000
iter:  15  17:03:51  -5.21  -2.79   -36.510060    0               +0.0000
iter:  16  17:03:57  -4.31  -2.77   -36.510163    0               -0.0000
iter:  17  17:04:03  -4.21  -2.63   -36.510173    0               +0.0000
iter:  18  17:04:09  -5.56  -3.30   -36.510173    0               +0.0000
iter:  19  17:04:15  -5.03  -3.33   -36.510174    0               -0.0000
iter:  20  17:04:21  -5.91  -3.60   -36.510175    0               +0.0000
iter:  21  17:04:27  -6.43  -3.65   -36.510174    0               -0.0000
iter:  22  17:04:33  -6.50  -3.58   -36.510176    0               +0.0000
iter:  23  17:04:39  -6.17  -3.60   -36.510175    0               +0.0000
iter:  24  17:04:45  -6.28  -3.66   -36.510175    0               +0.0000
iter:  25  17:04:51  -6.27  -3.64   -36.510177    0               +0.0000
iter:  26  17:04:57  -7.06  -3.76   -36.510177    0               +0.0000
iter:  27  17:05:03  -7.29  -3.81   -36.510177    0               +0.0000
iter:  28  17:05:09  -6.87  -3.85   -36.510176    0               -0.0000
iter:  29  17:05:15  -7.42  -3.87   -36.510177    0               -0.0000
iter:  30  17:05:21  -7.35  -3.89   -36.510177    0               +0.0000
iter:  31  17:05:27  -6.86  -3.92   -36.510177    0               +0.0000
iter:  32  17:05:33  -7.73  -4.10   -36.510177    0               +0.0000

Converged after 32 iterations.

Dipole moment: (0.000000, -0.000000, 0.000000) |e|*Ang

Total magnetic moment: 0.000000
Local magnetic moments:
   0 C  0.000000
   1 C  0.000000
   2 C  0.000000
   3 C  0.000000

Energy contributions relative to reference atoms: (reference = -4110.512462)

Kinetic:        +31.482517
Potential:      -32.870459
External:        +0.000000
XC:             -35.376776
Entropy (-ST):   -0.000000
Local:           +0.254541
--------------------------
Free energy:    -36.510177
Extrapolated:   -36.510177

Spin contamination: 0.000000 electrons
Fermi level: 3.81703

Warning: Showing only first 2 kpts
                      Up                     Down
 Kpt  Band  Eigenvalues  Occupancy  Eigenvalues  Occupancy
  0     6      0.44056    0.00781      0.44056    0.00781
  0     7      0.44598    0.00781      0.44598    0.00781
  0     8      7.43469    0.00000      7.43469    0.00000
  0     9      8.46337    0.00000      8.46337    0.00000

  1     6      0.43945    0.00781      0.43945    0.00781
  1     7      0.44494    0.00781      0.44494    0.00781
  1     8      6.85387    0.00000      6.85387    0.00000
  1     9      9.55203    0.00000      9.55203    0.00000


Input parameters:
  convergence: {bands: all}
  eigensolver: {name: cg,
                niter: 5}
  fixdensity: True
  kpts: {npoints: 50,
         path: GMKGALHA,LM,KH}
  nbands: -4
  symmetry: off

Initialize ...

C-setup:
  name: Carbon
  id: 4aa54d4b901d75f77cc0ea3eec22967b
  Z: 6
  valence: 4
  core: 2
  charge: 0.0
  file: /usr/share/gpaw-setups/C.PBE.gz
  cutoffs: 0.64(comp), 1.14(filt), 1.14(core), lmax=2
  valence states:
                energy  radius
    2s(2.00)   -13.751   0.635
    2p(2.00)    -5.284   0.635
    *s          13.461   0.635
    *p          21.927   0.635
    *d           0.000   0.635

  Using partial waves for C as LCAO basis

Reference energy: -4110.512462

Spin-polarized calculation.
Magnetic moment:  0.000000

Occupation numbers:
  Fixed Fermi level
  Fermi-Dirac: width=0.0200 eV

Convergence criteria:
  Maximum total energy change: 0.0005 eV / electron
  Maximum integral of absolute density change: 0.0001 electrons
  Maximum integral of absolute eigenstate change: 4e-08 eV^2
  Maximum number of iterations: 1500

Symmetries present (total): 1

  ( 1  0  0)
  ( 0  1  0)
  ( 0  0  1)

50 k-points
50 k-points in the irreducible part of the Brillouin zone
       k-points in crystal coordinates                weights
   0:     0.00000000    0.00000000    0.00000000          1/50
   1:     0.07142857    0.00000000    0.00000000          1/50
   2:     0.14285714    0.00000000    0.00000000          1/50
   3:     0.21428571    0.00000000    0.00000000          1/50
   4:     0.28571429    0.00000000    0.00000000          1/50
   5:     0.35714286    0.00000000    0.00000000          1/50
   6:     0.42857143    0.00000000    0.00000000          1/50
   7:     0.50000000    0.00000000    0.00000000          1/50
   8:     0.45833333    0.08333333    0.00000000          1/50
   9:     0.41666667    0.16666667    0.00000000          1/50
          ...
  49:     0.33333333    0.33333333    0.50000000          1/50

Wave functions: Plane wave expansion
  Cutoff energy: 400.000 eV
  Number of coefficients (min, max): 810, 866
  Using FFTW library
  Eigensolver: None  MatrixOperator buffer_size: default value or 
                              see value of nblock in input file
Diagonalizer layout: Serial LAPACKOrthonormalizer layout: Serial LAPACK 

CG(niter=5, rtol=3.0e-01) 

No density mixing

Memory estimate:
  Process memory now: 1026.35 MiB
  Calculator: 25.53 MiB
    Density: 2.36 MiB
      Arrays: 1.12 MiB
      Localized functions: 0.60 MiB
      Mixer: 0.64 MiB
    Hamiltonian: 0.85 MiB
      Arrays: 0.83 MiB
      XC: 0.00 MiB
      Poisson: 0.00 MiB
      vbar: 0.01 MiB
    Wavefunctions: 22.32 MiB
      Arrays psit_nG: 15.86 MiB
      Eigensolver: 0.22 MiB
      Projections: 0.95 MiB
      Projectors: 4.49 MiB
      Overlap op: 0.16 MiB
      PW-descriptor: 0.64 MiB

Total number of cores used: 1

Number of atoms: 4
Number of atomic orbitals: 16
Number of bands in calculation: 12
Bands to converge: all
Number of valence electrons: 16

... initialized

Initializing position-dependent things.

Creating initial wave functions:
  12 bands from LCAO basis set

                    
                    
                    
        C           
       C            
                    
                    
                    
                    
           C        
       C            
                    
                    
                    

Positions:
   0 C      0.000000    0.000000    6.630590
   1 C      0.000000    0.000000    2.210197
   2 C     -0.000000    1.425229    6.630590
   3 C      1.234285    0.712614    2.210197

Unit cell:
           periodic     x           y           z      points  spacing
  1. axis:    yes    2.468569    0.000000    0.000000    10     0.2138
  2. axis:    yes   -1.234284    2.137843    0.000000    10     0.2138
  3. axis:    yes    0.000000    0.000000    8.840787    42     0.2105

  Lengths:   2.468569   2.468569   8.840787
  Angles:   90.000000  90.000000 120.000000

Effective grid spacing dv^(1/3) = 0.2231

                     log10-error:    total        iterations:
           time      wfs    density  energy       fermi  poisson  magmom
iter:   1  17:05:54  +1.64          -33.311755    32              -0.0000
iter:   2  17:06:13  +0.76          -33.584574    30              -0.0000
iter:   3  17:06:33  +0.49          -33.624017    30              -0.0000
iter:   4  17:06:52  +0.37          -33.629924    32              -0.0000
iter:   5  17:07:12  -0.12          -33.631127    32              -0.0000
iter:   6  17:07:33  +0.18          -33.631348    31              -0.0000
iter:   7  17:07:54  -0.42          -33.631406    32              -0.0000
iter:   8  17:08:15  -0.78          -33.631415    33              -0.0000
iter:   9  17:08:35  -1.28          -33.631417    33              -0.0000
iter:  10  17:08:53  -0.39          -33.631417    32              -0.0000
iter:  11  17:09:07  -0.16          -33.631417    31              -0.0000
iter:  12  17:09:19  -0.58          -33.631417    31              -0.0000
iter:  13  17:09:28  -1.43          -33.631417    31              -0.0000
iter:  14  17:09:35  -2.32          -33.631417    31              -0.0000
iter:  15  17:09:41  -3.61          -33.631417    31              -0.0000
iter:  16  17:09:45  -1.47          -33.631417    31              -0.0000
iter:  17  17:09:49  -2.15          -33.631417    31              -0.0000
iter:  18  17:09:54  -1.13          -33.631417    31              -0.0000
iter:  19  17:09:58  -2.15          -33.631417    31              -0.0000
iter:  20  17:10:02  -1.53          -33.631417    31              -0.0000
iter:  21  17:10:05  -0.97          -33.631417    31              -0.0000
iter:  22  17:10:08  -0.93          -33.631417    31              -0.0000
iter:  23  17:10:11  -2.10          -33.631417    31              -0.0000
iter:  24  17:10:14  -2.42          -33.631417    31              -0.0000
iter:  25  17:10:16  -2.53          -33.631417    31              -0.0000
iter:  26  17:10:19  -1.17          -33.631417    31              -0.0000
iter:  27  17:10:22  -0.86          -33.631417    31              -0.0000
iter:  28  17:10:24  -1.19          -33.631417    31              -0.0000
iter:  29  17:10:26  -2.19          -33.631417    31              -0.0000
iter:  30  17:10:29  -3.18          -33.631417    31              -0.0000
iter:  31  17:10:31  -3.02          -33.631417    31              -0.0000
iter:  32  17:10:34  -4.09          -33.631417    31              -0.0000
iter:  33  17:10:36  -0.99          -33.631417    31              -0.0000
iter:  34  17:10:39  -2.34          -33.631417    31              -0.0000
iter:  35  17:10:41  -2.00          -33.631417    31              -0.0000
iter:  36  17:10:43  -3.38          -33.631417    31              -0.0000
iter:  37  17:10:45  -3.77          -33.631417    31              -0.0000
iter:  38  17:10:47  -5.19          -33.631417    31              -0.0000
iter:  39  17:10:49  -5.47          -33.631417    31              -0.0000
iter:  40  17:10:51  -6.33          -33.631417    31              -0.0000
iter:  41  17:10:53  -6.17          -33.631417    31              -0.0000
iter:  42  17:10:55  -6.55          -33.631417    31              -0.0000
iter:  43  17:10:56  -6.29          -33.631417    31              -0.0000
iter:  44  17:10:58  -6.59          -33.631417    31              -0.0000
iter:  45  17:11:00  -6.49          -33.631417    31              -0.0000
iter:  46  17:11:02  -6.70          -33.631417    31              -0.0000
iter:  47  17:11:03  -6.47          -33.631417    31              -0.0000
iter:  48  17:11:05  -6.83          -33.631417    31              -0.0000
iter:  49  17:11:07  -6.56          -33.631417    31              -0.0000
iter:  50  17:11:08  -6.88          -33.631417    31              -0.0000
iter:  51  17:11:10  -6.65          -33.631417    31              -0.0000
iter:  52  17:11:12  -7.01          -33.631417    31              -0.0000
iter:  53  17:11:13  -6.75          -33.631417    31              -0.0000
iter:  54  17:11:15  -7.06          -33.631417    31              -0.0000
iter:  55  17:11:17  -6.95          -33.631417    31              -0.0000
iter:  56  17:11:19  -7.17          -33.631417    31              -0.0000
iter:  57  17:11:20  -6.93          -33.631417    31              -0.0000
iter:  58  17:11:22  -7.29          -33.631417    31              -0.0000
iter:  59  17:11:24  -7.01          -33.631417    31              -0.0000
iter:  60  17:11:25  -7.35          -33.631417    31              -0.0000
iter:  61  17:11:27  -7.10          -33.631417    31              -0.0000
iter:  62  17:11:29  -7.47          -33.631417    31              -0.0000

Converged after 62 iterations.

Dipole moment: (0.000000, -0.000000, 0.000000) |e|*Ang

Total magnetic moment: -0.000000
Local magnetic moments:
   0 C  0.000000
   1 C  0.000000
   2 C  0.000000
   3 C  0.000000

Energy contributions relative to reference atoms: (reference = -4110.512462)

Kinetic:        +34.365344
Potential:      -32.870494
External:        +0.000000
XC:             -35.376804
Entropy (-ST):   -0.008029
Local:           +0.254551
--------------------------
Free energy:    -33.635432
Extrapolated:   -33.631417

Spin contamination: 0.000000 electrons
Fixed Fermi level: 3.81703

Warning: Showing only first 2 kpts
                      Up                     Down
 Kpt  Band  Eigenvalues  Occupancy  Eigenvalues  Occupancy
  0     6      0.64159    0.02000      0.64159    0.02000
  0     7      0.64730    0.02000      0.64730    0.02000
  0     8      6.65717    0.00000      6.65717    0.00000
  0     9     11.98076    0.00000     11.98076    0.00000

  1     6      0.38738    0.02000      0.38738    0.02000
  1     7      0.39288    0.02000      0.39288    0.02000
  1     8      6.81519    0.00000      6.81519    0.00000
  1     9      9.80350    0.00000      9.80350    0.00000


Timing:                              incl.     excl.
-----------------------------------------------------------
Hamiltonian:                         1.106     0.002   0.0% |
 Atomic:                             0.753     0.004   0.0% |
  XC Correction:                     0.749     0.749   0.1% |
 Calculate atomic Hamiltonians:      0.067     0.067   0.0% |
 Communicate:                        0.000     0.000   0.0% |
 Initialize Hamiltonian:             0.000     0.000   0.0% |
 Poisson:                            0.000     0.000   0.0% |
 XC 3D grid:                         0.284     0.284   0.1% |
LCAO initialization:                 8.398     0.046   0.0% |
 LCAO eigensolver:                   2.638     0.026   0.0% |
  Calculate projections:             0.017     0.017   0.0% |
  DenseAtomicCorrection:             0.095     0.095   0.0% |
  Distribute overlap matrix:         0.010     0.010   0.0% |
  Orbital Layouts:                   0.202     0.202   0.0% |
  Potential matrix:                  0.705     0.705   0.1% |
  Sum over cells:                    1.582     1.582   0.3% |
 LCAO to grid:                       3.535     3.535   0.6% |
 Set positions (LCAO WFS):           2.179     0.004   0.0% |
  Basic WFS set positions:           0.002     0.002   0.0% |
  Basis functions set positions:     0.000     0.000   0.0% |
  TCI: Calculate S, T, P:            2.173     2.173   0.4% |
PWDescriptor:                        0.049     0.049   0.0% |
Redistribute:                        0.000     0.000   0.0% |
SCF-cycle:                         542.246    23.631   4.3% |-|
 CG:                               261.122   247.737  44.7% |-----------------|
  CG: orthonormalize:               13.386     7.267   1.3% ||
   CG: overlap:                      3.108     3.108   0.6% |
   CG: overlap2:                     3.011     3.011   0.5% |
 Davidson:                         124.608    76.091  13.7% |----|
  calc. matrices:                   34.328    34.328   6.2% |-|
  diagonalize:                      11.506    11.506   2.1% ||
  rotate_psi:                        2.683     2.683   0.5% |
 Density:                           13.292     0.001   0.0% |
  Atomic density matrices:           0.285     0.285   0.1% |
  Mix:                               1.090     1.090   0.2% |
  Multipole moments:                 0.005     0.005   0.0% |
  Pseudo density:                   11.910    11.705   2.1% ||
   Symmetrize density:               0.205     0.205   0.0% |
 Hamiltonian:                       15.446     0.028   0.0% |
  Atomic:                           11.380     0.052   0.0% |
   XC Correction:                   11.328    11.328   2.0% ||
  Calculate atomic Hamiltonians:     0.864     0.864   0.2% |
  Communicate:                       0.000     0.000   0.0% |
  Poisson:                           0.011     0.011   0.0% |
  XC 3D grid:                        3.162     3.162   0.6% |
 Orthonormalize:                     1.283     0.022   0.0% |
  Band Layouts:                      0.022     0.005   0.0% |
   Inverse Cholesky:                 0.017     0.017   0.0% |
  calc_s_matrix:                     0.091     0.091   0.0% |
  projections:                       1.073     1.073   0.2% |
  rotate_psi:                        0.075     0.075   0.0% |
 Residuals:                         31.513    31.513   5.7% |-|
 Subspace diag:                     71.352     1.566   0.3% |
  Band Layouts:                      5.419     0.430   0.1% |
   Diagonalize:                      4.685     4.685   0.8% |
   Distribute results:               0.305     0.305   0.1% |
  calc_h_matrix:                    58.872    58.872  10.6% |---|
  rotate_psi:                        5.495     5.495   1.0% |
Set symmetry:                        0.015     0.015   0.0% |
Other:                               2.786     2.786   0.5% |
-----------------------------------------------------------
Total:                                       554.602 100.0%

Date: Sat Feb 13 17:11:30 2021
element =  C
struct =  hcp
kpts =  (8,8,4)
element =  C
configuration =  [He] 2s2 2p2
valence =  ['2s', '2p']
occupations =  {'2s': 2, '2p': 2}
nls =  2p
rNum =  600
lmax =  p
*******************************************
Starting confinement parameter optimization
Adjustable parameters and initial values:
  C_2p.r0 : 2.872384
  C_2s.r0 : 2.872384
  C_n.r0 : 4.308576
*******************************************

OPT_VAL: 2.872383711272131   2.872383711272131   4.308575566908196
VCONF:
  C_2p : PowerConfinement(r0=2.872384, s=2.000000)
  C_2s : PowerConfinement(r0=2.872384, s=2.000000)
  C_n : PowerConfinement(r0=4.308576, s=2.000000)
RESIDUAL: 0.0

OPT_VAL: 3.0723837112721313   2.872383711272131   4.308575566908196
VCONF:
  C_2p : PowerConfinement(r0=3.072384, s=2.000000)
  C_2s : PowerConfinement(r0=2.872384, s=2.000000)
  C_n : PowerConfinement(r0=4.308576, s=2.000000)
RESIDUAL: 0.0

OPT_VAL: 2.872383711272131   3.0723837112721313   4.308575566908196
VCONF:
  C_2p : PowerConfinement(r0=2.872384, s=2.000000)
  C_2s : PowerConfinement(r0=3.072384, s=2.000000)
  C_n : PowerConfinement(r0=4.308576, s=2.000000)
RESIDUAL: 0.0

OPT_VAL: 2.872383711272131   2.872383711272131   4.508575566908196
VCONF:
  C_2p : PowerConfinement(r0=2.872384, s=2.000000)
  C_2s : PowerConfinement(r0=2.872384, s=2.000000)
  C_n : PowerConfinement(r0=4.508576, s=2.000000)
RESIDUAL: 0.0

OPT_VAL: 2.897383711272131   2.872383711272131   4.308575566908196
VCONF:
  C_2p : PowerConfinement(r0=2.897384, s=2.000000)
  C_2s : PowerConfinement(r0=2.872384, s=2.000000)
  C_n : PowerConfinement(r0=4.308576, s=2.000000)
RESIDUAL: 0.0

OPT_VAL: 2.872383711272131   2.897383711272131   4.308575566908196
VCONF:
  C_2p : PowerConfinement(r0=2.872384, s=2.000000)
  C_2s : PowerConfinement(r0=2.897384, s=2.000000)
  C_n : PowerConfinement(r0=4.308576, s=2.000000)
RESIDUAL: 0.0

OPT_VAL: 2.872383711272131   2.872383711272131   4.333575566908197
VCONF:
  C_2p : PowerConfinement(r0=2.872384, s=2.000000)
  C_2s : PowerConfinement(r0=2.872384, s=2.000000)
  C_n : PowerConfinement(r0=4.333576, s=2.000000)
RESIDUAL: 0.0

OPT_VAL: 2.877383711272131   2.872383711272131   4.308575566908196
VCONF:
  C_2p : PowerConfinement(r0=2.877384, s=2.000000)
  C_2s : PowerConfinement(r0=2.872384, s=2.000000)
  C_n : PowerConfinement(r0=4.308576, s=2.000000)
RESIDUAL: 0.0

OPT_VAL: 2.872383711272131   2.877383711272131   4.308575566908196
VCONF:
  C_2p : PowerConfinement(r0=2.872384, s=2.000000)
  C_2s : PowerConfinement(r0=2.877384, s=2.000000)
  C_n : PowerConfinement(r0=4.308576, s=2.000000)
RESIDUAL: 0.0

OPT_VAL: 2.872383711272131   2.872383711272131   4.313575566908196
VCONF:
  C_2p : PowerConfinement(r0=2.872384, s=2.000000)
  C_2s : PowerConfinement(r0=2.872384, s=2.000000)
  C_n : PowerConfinement(r0=4.313576, s=2.000000)
RESIDUAL: 0.0

*******************************************
Optimization finished after 10 iterations
Adjustable parameters and final values:
  C_2p.r0 : 2.872384
  C_2s.r0 : 2.872384
  C_n.r0 : 4.308576
*******************************************

VCONF:
  C_2p : PowerConfinement(r0=2.872384, s=2.000000)
  C_2s : PowerConfinement(r0=2.872384, s=2.000000)
  C_n : PowerConfinement(r0=4.308576, s=2.000000)
