
     Program PWSCF v.6.0 (svn rev. 13079) starts on 25Feb2021 at 15:15:56 

     This program is part of the open-source Quantum ESPRESSO suite
     for quantum simulation of materials; please cite
         "P. Giannozzi et al., J. Phys.:Condens. Matter 21 395502 (2009);
          URL http://www.quantum-espresso.org", 
     in publications or presentations arising from this work. More details at
     http://www.quantum-espresso.org/quote

     Parallel version (MPI), running on     1 processors
     Reading input from espresso.pwi
Warning: card &IONS ignored
Warning: card / ignored
Warning: card &CELL ignored
Warning: card / ignored

     Current dimensions of program PWSCF are:
     Max number of different atomic species (ntypx) = 10
     Max number of k-points (npk) =  40000
     Max angular momentum in pseudopotentials (lmaxx) =  3
     Message from routine input:
     WARNING: "startingwfc" set to atomic+random may spoil restart

     Atomic positions and unit cell read from directory:
     ./pwscf.save/


     IMPORTANT: XC functional enforced from input :
     Exchange-correlation      = PBE ( 1  4  3  4 0 0)
     Any further DFT definition will be discarded
     Please, verify this is what you really want


     Subspace diagonalization in iterative solution of the eigenvalue problem:
     a serial algorithm will be used


     G-vector sticks info
     --------------------
     sticks:   dense  smooth     PW     G-vecs:    dense   smooth      PW
     Sum         793     637    199                14553    10417    1759



     bravais-lattice index     =            0
     lattice parameter (alat)  =       7.5598  a.u.
     unit-cell volume          =     305.4994 (a.u.)^3
     number of atoms/cell      =            2
     number of atomic types    =            1
     number of electrons       =        28.00
     number of Kohn-Sham states=           18
     kinetic-energy cutoff     =      40.0000  Ry
     charge density cutoff     =     200.0000  Ry
     Exchange-correlation      = PBE ( 1  4  3  4 0 0)

     celldm(1)=   7.559767  celldm(2)=   0.000000  celldm(3)=   0.000000
     celldm(4)=   0.000000  celldm(5)=   0.000000  celldm(6)=   0.000000

     crystal axes: (cart. coord. in units of alat)
               a(1) = (   0.000000   0.707107   0.707107 )  
               a(2) = (   0.707107   0.000000   0.707107 )  
               a(3) = (   0.707107   0.707107   0.000000 )  

     reciprocal axes: (cart. coord. in units 2 pi/alat)
               b(1) = ( -0.707107  0.707107  0.707107 )  
               b(2) = (  0.707107 -0.707107  0.707107 )  
               b(3) = (  0.707107  0.707107 -0.707107 )  


     PseudoPot. # 1 for Ge read from file:
     /home/inukai/tango/tests/1element/qe_fit_v2_Ge/../pseudo/ge_pbe_v1.4.uspp.F.UPF
     MD5 check sum: 9c9eaa91e581c3f09632fb3098b2c6b2
     Pseudo is Ultrasoft + core correction, Zval = 14.0
     Generated by new atomic code, or converted to UPF format
     Using radial grid of  873 points,  6 beta functions with: 
                l(1) =   0
                l(2) =   0
                l(3) =   1
                l(4) =   1
                l(5) =   2
                l(6) =   2
     Q(r) pseudized with  8 coefficients,  rinner =    1.400   1.400   1.400
                                                       1.400   1.400

     atomic species   valence    mass     pseudopotential
        Ge            14.00    72.63000     Ge( 1.00)

     48 Sym. Ops., with inversion, found (24 have fractional translation)


                                    s                        frac. trans.

      isym =  1     identity                                     

 cryst.   s( 1) = (     1          0          0      )
                  (     0          1          0      )
                  (     0          0          1      )

 cart.    s( 1) = (  1.0000000  0.0000000  0.0000000 )
                  (  0.0000000  1.0000000  0.0000000 )
                  (  0.0000000  0.0000000  1.0000000 )


      isym =  2     180 deg rotation - cart. axis [0,0,1]        

 cryst.   s( 2) = (     0          1         -1      )
                  (     1          0         -1      )
                  (     0          0         -1      )

 cart.    s( 2) = ( -1.0000000  0.0000000  0.0000000 )
                  (  0.0000000 -1.0000000  0.0000000 )
                  (  0.0000000  0.0000000  1.0000000 )


      isym =  3     180 deg rotation - cart. axis [0,1,0]        

 cryst.   s( 3) = (     0         -1          1      )
                  (     0         -1          0      )
                  (     1         -1          0      )

 cart.    s( 3) = ( -1.0000000  0.0000000  0.0000000 )
                  (  0.0000000  1.0000000  0.0000000 )
                  (  0.0000000  0.0000000 -1.0000000 )


      isym =  4     180 deg rotation - cart. axis [1,0,0]        

 cryst.   s( 4) = (    -1          0          0      )
                  (    -1          0          1      )
                  (    -1          1          0      )

 cart.    s( 4) = (  1.0000000  0.0000000  0.0000000 )
                  (  0.0000000 -1.0000000  0.0000000 )
                  (  0.0000000  0.0000000 -1.0000000 )


      isym =  5     180 deg rotation - cart. axis [1,1,0]        

 cryst.   s( 5) = (    -1          0          1      )    f =( -0.2500000 )
                  (     0         -1          1      )       ( -0.2500000 )
                  (     0          0          1      )       ( -0.2500000 )

 cart.    s( 5) = (  0.0000000  1.0000000  0.0000000 )    f =( -0.3535534 )
                  (  1.0000000  0.0000000  0.0000000 )       ( -0.3535534 )
                  (  0.0000000  0.0000000 -1.0000000 )       ( -0.3535534 )


      isym =  6     180 deg rotation - cart. axis [1,-1,0]       

 cryst.   s( 6) = (     0         -1          0      )    f =( -0.2500000 )
                  (    -1          0          0      )       ( -0.2500000 )
                  (     0          0         -1      )       ( -0.2500000 )

 cart.    s( 6) = (  0.0000000 -1.0000000  0.0000000 )    f =( -0.3535534 )
                  ( -1.0000000  0.0000000  0.0000000 )       ( -0.3535534 )
                  (  0.0000000  0.0000000 -1.0000000 )       ( -0.3535534 )


      isym =  7      90 deg rotation - cart. axis [0,0,-1]       

 cryst.   s( 7) = (     0          1          0      )    f =( -0.2500000 )
                  (     0          1         -1      )       ( -0.2500000 )
                  (    -1          1          0      )       ( -0.2500000 )

 cart.    s( 7) = (  0.0000000  1.0000000  0.0000000 )    f =( -0.3535534 )
                  ( -1.0000000  0.0000000  0.0000000 )       ( -0.3535534 )
                  (  0.0000000  0.0000000  1.0000000 )       ( -0.3535534 )


      isym =  8      90 deg rotation - cart. axis [0,0,1]        

 cryst.   s( 8) = (     1          0         -1      )    f =( -0.2500000 )
                  (     1          0          0      )       ( -0.2500000 )
                  (     1         -1          0      )       ( -0.2500000 )

 cart.    s( 8) = (  0.0000000 -1.0000000  0.0000000 )    f =( -0.3535534 )
                  (  1.0000000  0.0000000  0.0000000 )       ( -0.3535534 )
                  (  0.0000000  0.0000000  1.0000000 )       ( -0.3535534 )


      isym =  9     180 deg rotation - cart. axis [1,0,1]        

 cryst.   s( 9) = (    -1          1          0      )    f =( -0.2500000 )
                  (     0          1          0      )       ( -0.2500000 )
                  (     0          1         -1      )       ( -0.2500000 )

 cart.    s( 9) = (  0.0000000  0.0000000  1.0000000 )    f =( -0.3535534 )
                  (  0.0000000 -1.0000000  0.0000000 )       ( -0.3535534 )
                  (  1.0000000  0.0000000  0.0000000 )       ( -0.3535534 )


      isym = 10     180 deg rotation - cart. axis [-1,0,1]       

 cryst.   s(10) = (     0          0         -1      )    f =( -0.2500000 )
                  (     0         -1          0      )       ( -0.2500000 )
                  (    -1          0          0      )       ( -0.2500000 )

 cart.    s(10) = (  0.0000000  0.0000000 -1.0000000 )    f =( -0.3535534 )
                  (  0.0000000 -1.0000000  0.0000000 )       ( -0.3535534 )
                  ( -1.0000000  0.0000000  0.0000000 )       ( -0.3535534 )


      isym = 11      90 deg rotation - cart. axis [0,1,0]        

 cryst.   s(11) = (     0          0          1      )    f =( -0.2500000 )
                  (    -1          0          1      )       ( -0.2500000 )
                  (     0         -1          1      )       ( -0.2500000 )

 cart.    s(11) = (  0.0000000  0.0000000  1.0000000 )    f =( -0.3535534 )
                  (  0.0000000  1.0000000  0.0000000 )       ( -0.3535534 )
                  ( -1.0000000  0.0000000  0.0000000 )       ( -0.3535534 )


      isym = 12      90 deg rotation - cart. axis [0,-1,0]       

 cryst.   s(12) = (     1         -1          0      )    f =( -0.2500000 )
                  (     1          0         -1      )       ( -0.2500000 )
                  (     1          0          0      )       ( -0.2500000 )

 cart.    s(12) = (  0.0000000  0.0000000 -1.0000000 )    f =( -0.3535534 )
                  (  0.0000000  1.0000000  0.0000000 )       ( -0.3535534 )
                  (  1.0000000  0.0000000  0.0000000 )       ( -0.3535534 )


      isym = 13     180 deg rotation - cart. axis [0,1,1]        

 cryst.   s(13) = (     1          0          0      )    f =( -0.2500000 )
                  (     1         -1          0      )       ( -0.2500000 )
                  (     1          0         -1      )       ( -0.2500000 )

 cart.    s(13) = ( -1.0000000  0.0000000  0.0000000 )    f =( -0.3535534 )
                  (  0.0000000  0.0000000  1.0000000 )       ( -0.3535534 )
                  (  0.0000000  1.0000000  0.0000000 )       ( -0.3535534 )


      isym = 14     180 deg rotation - cart. axis [0,1,-1]       

 cryst.   s(14) = (    -1          0          0      )    f =( -0.2500000 )
                  (     0          0         -1      )       ( -0.2500000 )
                  (     0         -1          0      )       ( -0.2500000 )

 cart.    s(14) = ( -1.0000000  0.0000000  0.0000000 )    f =( -0.3535534 )
                  (  0.0000000  0.0000000 -1.0000000 )       ( -0.3535534 )
                  (  0.0000000 -1.0000000  0.0000000 )       ( -0.3535534 )


      isym = 15      90 deg rotation - cart. axis [-1,0,0]       

 cryst.   s(15) = (     0         -1          1      )    f =( -0.2500000 )
                  (     0          0          1      )       ( -0.2500000 )
                  (    -1          0          1      )       ( -0.2500000 )

 cart.    s(15) = (  1.0000000  0.0000000  0.0000000 )    f =( -0.3535534 )
                  (  0.0000000  0.0000000  1.0000000 )       ( -0.3535534 )
                  (  0.0000000 -1.0000000  0.0000000 )       ( -0.3535534 )


      isym = 16      90 deg rotation - cart. axis [1,0,0]        

 cryst.   s(16) = (     0          1         -1      )    f =( -0.2500000 )
                  (    -1          1          0      )       ( -0.2500000 )
                  (     0          1          0      )       ( -0.2500000 )

 cart.    s(16) = (  1.0000000  0.0000000  0.0000000 )    f =( -0.3535534 )
                  (  0.0000000  0.0000000 -1.0000000 )       ( -0.3535534 )
                  (  0.0000000  1.0000000  0.0000000 )       ( -0.3535534 )


      isym = 17     120 deg rotation - cart. axis [-1,-1,-1]     

 cryst.   s(17) = (     0          0          1      )
                  (     1          0          0      )
                  (     0          1          0      )

 cart.    s(17) = (  0.0000000  1.0000000  0.0000000 )
                  (  0.0000000  0.0000000  1.0000000 )
                  (  1.0000000  0.0000000  0.0000000 )


      isym = 18     120 deg rotation - cart. axis [-1,1,1]       

 cryst.   s(18) = (     1         -1          0      )
                  (     0         -1          1      )
                  (     0         -1          0      )

 cart.    s(18) = (  0.0000000 -1.0000000  0.0000000 )
                  (  0.0000000  0.0000000  1.0000000 )
                  ( -1.0000000  0.0000000  0.0000000 )


      isym = 19     120 deg rotation - cart. axis [1,1,-1]       

 cryst.   s(19) = (    -1          1          0      )
                  (    -1          0          0      )
                  (    -1          0          1      )

 cart.    s(19) = (  0.0000000  1.0000000  0.0000000 )
                  (  0.0000000  0.0000000 -1.0000000 )
                  ( -1.0000000  0.0000000  0.0000000 )


      isym = 20     120 deg rotation - cart. axis [1,-1,1]       

 cryst.   s(20) = (     0          0         -1      )
                  (     0          1         -1      )
                  (     1          0         -1      )

 cart.    s(20) = (  0.0000000 -1.0000000  0.0000000 )
                  (  0.0000000  0.0000000 -1.0000000 )
                  (  1.0000000  0.0000000  0.0000000 )


      isym = 21     120 deg rotation - cart. axis [1,1,1]        

 cryst.   s(21) = (     0          1          0      )
                  (     0          0          1      )
                  (     1          0          0      )

 cart.    s(21) = (  0.0000000  0.0000000  1.0000000 )
                  (  1.0000000  0.0000000  0.0000000 )
                  (  0.0000000  1.0000000  0.0000000 )


      isym = 22     120 deg rotation - cart. axis [-1,1,-1]      

 cryst.   s(22) = (    -1          0          1      )
                  (    -1          1          0      )
                  (    -1          0          0      )

 cart.    s(22) = (  0.0000000  0.0000000  1.0000000 )
                  ( -1.0000000  0.0000000  0.0000000 )
                  (  0.0000000 -1.0000000  0.0000000 )


      isym = 23     120 deg rotation - cart. axis [1,-1,-1]      

 cryst.   s(23) = (     1          0         -1      )
                  (     0          0         -1      )
                  (     0          1         -1      )

 cart.    s(23) = (  0.0000000  0.0000000 -1.0000000 )
                  ( -1.0000000  0.0000000  0.0000000 )
                  (  0.0000000  1.0000000  0.0000000 )


      isym = 24     120 deg rotation - cart. axis [-1,-1,1]      

 cryst.   s(24) = (     0         -1          0      )
                  (     1         -1          0      )
                  (     0         -1          1      )

 cart.    s(24) = (  0.0000000  0.0000000 -1.0000000 )
                  (  1.0000000  0.0000000  0.0000000 )
                  (  0.0000000 -1.0000000  0.0000000 )


      isym = 25     inversion                                    

 cryst.   s(25) = (    -1          0          0      )    f =( -0.2500000 )
                  (     0         -1          0      )       ( -0.2500000 )
                  (     0          0         -1      )       ( -0.2500000 )

 cart.    s(25) = ( -1.0000000  0.0000000  0.0000000 )    f =( -0.3535534 )
                  (  0.0000000 -1.0000000  0.0000000 )       ( -0.3535534 )
                  (  0.0000000  0.0000000 -1.0000000 )       ( -0.3535534 )


      isym = 26     inv. 180 deg rotation - cart. axis [0,0,1]   

 cryst.   s(26) = (     0         -1          1      )    f =( -0.2500000 )
                  (    -1          0          1      )       ( -0.2500000 )
                  (     0          0          1      )       ( -0.2500000 )

 cart.    s(26) = (  1.0000000  0.0000000  0.0000000 )    f =( -0.3535534 )
                  (  0.0000000  1.0000000  0.0000000 )       ( -0.3535534 )
                  (  0.0000000  0.0000000 -1.0000000 )       ( -0.3535534 )


      isym = 27     inv. 180 deg rotation - cart. axis [0,1,0]   

 cryst.   s(27) = (     0          1         -1      )    f =( -0.2500000 )
                  (     0          1          0      )       ( -0.2500000 )
                  (    -1          1          0      )       ( -0.2500000 )

 cart.    s(27) = (  1.0000000  0.0000000  0.0000000 )    f =( -0.3535534 )
                  (  0.0000000 -1.0000000  0.0000000 )       ( -0.3535534 )
                  (  0.0000000  0.0000000  1.0000000 )       ( -0.3535534 )


      isym = 28     inv. 180 deg rotation - cart. axis [1,0,0]   

 cryst.   s(28) = (     1          0          0      )    f =( -0.2500000 )
                  (     1          0         -1      )       ( -0.2500000 )
                  (     1         -1          0      )       ( -0.2500000 )

 cart.    s(28) = ( -1.0000000  0.0000000  0.0000000 )    f =( -0.3535534 )
                  (  0.0000000  1.0000000  0.0000000 )       ( -0.3535534 )
                  (  0.0000000  0.0000000  1.0000000 )       ( -0.3535534 )


      isym = 29     inv. 180 deg rotation - cart. axis [1,1,0]   

 cryst.   s(29) = (     1          0         -1      )
                  (     0          1         -1      )
                  (     0          0         -1      )

 cart.    s(29) = (  0.0000000 -1.0000000  0.0000000 )
                  ( -1.0000000  0.0000000  0.0000000 )
                  (  0.0000000  0.0000000  1.0000000 )


      isym = 30     inv. 180 deg rotation - cart. axis [1,-1,0]  

 cryst.   s(30) = (     0          1          0      )
                  (     1          0          0      )
                  (     0          0          1      )

 cart.    s(30) = (  0.0000000  1.0000000  0.0000000 )
                  (  1.0000000  0.0000000  0.0000000 )
                  (  0.0000000  0.0000000  1.0000000 )


      isym = 31     inv.  90 deg rotation - cart. axis [0,0,-1]  

 cryst.   s(31) = (     0         -1          0      )
                  (     0         -1          1      )
                  (     1         -1          0      )

 cart.    s(31) = (  0.0000000 -1.0000000  0.0000000 )
                  (  1.0000000  0.0000000  0.0000000 )
                  (  0.0000000  0.0000000 -1.0000000 )


      isym = 32     inv.  90 deg rotation - cart. axis [0,0,1]   

 cryst.   s(32) = (    -1          0          1      )
                  (    -1          0          0      )
                  (    -1          1          0      )

 cart.    s(32) = (  0.0000000  1.0000000  0.0000000 )
                  ( -1.0000000  0.0000000  0.0000000 )
                  (  0.0000000  0.0000000 -1.0000000 )


      isym = 33     inv. 180 deg rotation - cart. axis [1,0,1]   

 cryst.   s(33) = (     1         -1          0      )
                  (     0         -1          0      )
                  (     0         -1          1      )

 cart.    s(33) = (  0.0000000  0.0000000 -1.0000000 )
                  (  0.0000000  1.0000000  0.0000000 )
                  ( -1.0000000  0.0000000  0.0000000 )


      isym = 34     inv. 180 deg rotation - cart. axis [-1,0,1]  

 cryst.   s(34) = (     0          0          1      )
                  (     0          1          0      )
                  (     1          0          0      )

 cart.    s(34) = (  0.0000000  0.0000000  1.0000000 )
                  (  0.0000000  1.0000000  0.0000000 )
                  (  1.0000000  0.0000000  0.0000000 )


      isym = 35     inv.  90 deg rotation - cart. axis [0,1,0]   

 cryst.   s(35) = (     0          0         -1      )
                  (     1          0         -1      )
                  (     0          1         -1      )

 cart.    s(35) = (  0.0000000  0.0000000 -1.0000000 )
                  (  0.0000000 -1.0000000  0.0000000 )
                  (  1.0000000  0.0000000  0.0000000 )


      isym = 36     inv.  90 deg rotation - cart. axis [0,-1,0]  

 cryst.   s(36) = (    -1          1          0      )
                  (    -1          0          1      )
                  (    -1          0          0      )

 cart.    s(36) = (  0.0000000  0.0000000  1.0000000 )
                  (  0.0000000 -1.0000000  0.0000000 )
                  ( -1.0000000  0.0000000  0.0000000 )


      isym = 37     inv. 180 deg rotation - cart. axis [0,1,1]   

 cryst.   s(37) = (    -1          0          0      )
                  (    -1          1          0      )
                  (    -1          0          1      )

 cart.    s(37) = (  1.0000000  0.0000000  0.0000000 )
                  (  0.0000000  0.0000000 -1.0000000 )
                  (  0.0000000 -1.0000000  0.0000000 )


      isym = 38     inv. 180 deg rotation - cart. axis [0,1,-1]  

 cryst.   s(38) = (     1          0          0      )
                  (     0          0          1      )
                  (     0          1          0      )

 cart.    s(38) = (  1.0000000  0.0000000  0.0000000 )
                  (  0.0000000  0.0000000  1.0000000 )
                  (  0.0000000  1.0000000  0.0000000 )


      isym = 39     inv.  90 deg rotation - cart. axis [-1,0,0]  

 cryst.   s(39) = (     0          1         -1      )
                  (     0          0         -1      )
                  (     1          0         -1      )

 cart.    s(39) = ( -1.0000000  0.0000000  0.0000000 )
                  (  0.0000000  0.0000000 -1.0000000 )
                  (  0.0000000  1.0000000  0.0000000 )


      isym = 40     inv.  90 deg rotation - cart. axis [1,0,0]   

 cryst.   s(40) = (     0         -1          1      )
                  (     1         -1          0      )
                  (     0         -1          0      )

 cart.    s(40) = ( -1.0000000  0.0000000  0.0000000 )
                  (  0.0000000  0.0000000  1.0000000 )
                  (  0.0000000 -1.0000000  0.0000000 )


      isym = 41     inv. 120 deg rotation - cart. axis [-1,-1,-1]

 cryst.   s(41) = (     0          0         -1      )    f =( -0.2500000 )
                  (    -1          0          0      )       ( -0.2500000 )
                  (     0         -1          0      )       ( -0.2500000 )

 cart.    s(41) = (  0.0000000 -1.0000000  0.0000000 )    f =( -0.3535534 )
                  (  0.0000000  0.0000000 -1.0000000 )       ( -0.3535534 )
                  ( -1.0000000  0.0000000  0.0000000 )       ( -0.3535534 )


      isym = 42     inv. 120 deg rotation - cart. axis [-1,1,1]  

 cryst.   s(42) = (    -1          1          0      )    f =( -0.2500000 )
                  (     0          1         -1      )       ( -0.2500000 )
                  (     0          1          0      )       ( -0.2500000 )

 cart.    s(42) = (  0.0000000  1.0000000  0.0000000 )    f =( -0.3535534 )
                  (  0.0000000  0.0000000 -1.0000000 )       ( -0.3535534 )
                  (  1.0000000  0.0000000  0.0000000 )       ( -0.3535534 )


      isym = 43     inv. 120 deg rotation - cart. axis [1,1,-1]  

 cryst.   s(43) = (     1         -1          0      )    f =( -0.2500000 )
                  (     1          0          0      )       ( -0.2500000 )
                  (     1          0         -1      )       ( -0.2500000 )

 cart.    s(43) = (  0.0000000 -1.0000000  0.0000000 )    f =( -0.3535534 )
                  (  0.0000000  0.0000000  1.0000000 )       ( -0.3535534 )
                  (  1.0000000  0.0000000  0.0000000 )       ( -0.3535534 )


      isym = 44     inv. 120 deg rotation - cart. axis [1,-1,1]  

 cryst.   s(44) = (     0          0          1      )    f =( -0.2500000 )
                  (     0         -1          1      )       ( -0.2500000 )
                  (    -1          0          1      )       ( -0.2500000 )

 cart.    s(44) = (  0.0000000  1.0000000  0.0000000 )    f =( -0.3535534 )
                  (  0.0000000  0.0000000  1.0000000 )       ( -0.3535534 )
                  ( -1.0000000  0.0000000  0.0000000 )       ( -0.3535534 )


      isym = 45     inv. 120 deg rotation - cart. axis [1,1,1]   

 cryst.   s(45) = (     0         -1          0      )    f =( -0.2500000 )
                  (     0          0         -1      )       ( -0.2500000 )
                  (    -1          0          0      )       ( -0.2500000 )

 cart.    s(45) = (  0.0000000  0.0000000 -1.0000000 )    f =( -0.3535534 )
                  ( -1.0000000  0.0000000  0.0000000 )       ( -0.3535534 )
                  (  0.0000000 -1.0000000  0.0000000 )       ( -0.3535534 )


      isym = 46     inv. 120 deg rotation - cart. axis [-1,1,-1] 

 cryst.   s(46) = (     1          0         -1      )    f =( -0.2500000 )
                  (     1         -1          0      )       ( -0.2500000 )
                  (     1          0          0      )       ( -0.2500000 )

 cart.    s(46) = (  0.0000000  0.0000000 -1.0000000 )    f =( -0.3535534 )
                  (  1.0000000  0.0000000  0.0000000 )       ( -0.3535534 )
                  (  0.0000000  1.0000000  0.0000000 )       ( -0.3535534 )


      isym = 47     inv. 120 deg rotation - cart. axis [1,-1,-1] 

 cryst.   s(47) = (    -1          0          1      )    f =( -0.2500000 )
                  (     0          0          1      )       ( -0.2500000 )
                  (     0         -1          1      )       ( -0.2500000 )

 cart.    s(47) = (  0.0000000  0.0000000  1.0000000 )    f =( -0.3535534 )
                  (  1.0000000  0.0000000  0.0000000 )       ( -0.3535534 )
                  (  0.0000000 -1.0000000  0.0000000 )       ( -0.3535534 )


      isym = 48     inv. 120 deg rotation - cart. axis [-1,-1,1] 

 cryst.   s(48) = (     0          1          0      )    f =( -0.2500000 )
                  (    -1          1          0      )       ( -0.2500000 )
                  (     0          1         -1      )       ( -0.2500000 )

 cart.    s(48) = (  0.0000000  0.0000000  1.0000000 )    f =( -0.3535534 )
                  ( -1.0000000  0.0000000  0.0000000 )       ( -0.3535534 )
                  (  0.0000000  1.0000000  0.0000000 )       ( -0.3535534 )


   Cartesian axes

     site n.     atom                  positions (alat units)
         1           Ge  tau(   1) = (   0.0000000   0.0000000   0.0000000  )
         2           Ge  tau(   2) = (   0.3535534   0.3535534   0.3535534  )

   Crystallographic axes

     site n.     atom                  positions (cryst. coord.)
         1           Ge  tau(   1) = (  0.0000000  0.0000000  0.0000000  )
         2           Ge  tau(   2) = (  0.2500000  0.2500000  0.2500000  )

     number of k points=    50  gaussian smearing, width (Ry)=  0.0010
                       cart. coord. in units 2pi/alat
        k(    1) = (   0.3535534   0.3535534   0.3535534), wk =   0.0400000
        k(    2) = (   0.3240906   0.3240906   0.3240906), wk =   0.0400000
        k(    3) = (   0.2946278   0.2946278   0.2946278), wk =   0.0400000
        k(    4) = (   0.2651650   0.2651650   0.2651650), wk =   0.0400000
        k(    5) = (   0.2357023   0.2357023   0.2357023), wk =   0.0400000
        k(    6) = (   0.2062395   0.2062395   0.2062395), wk =   0.0400000
        k(    7) = (   0.1767767   0.1767767   0.1767767), wk =   0.0400000
        k(    8) = (   0.1473139   0.1473139   0.1473139), wk =   0.0400000
        k(    9) = (   0.1178511   0.1178511   0.1178511), wk =   0.0400000
        k(   10) = (   0.0883883   0.0883883   0.0883883), wk =   0.0400000
        k(   11) = (   0.0589256   0.0589256   0.0589256), wk =   0.0400000
        k(   12) = (   0.0294628   0.0294628   0.0294628), wk =   0.0400000
        k(   13) = (   0.0000000   0.0000000   0.0000000), wk =   0.0400000
        k(   14) = (   0.0000000   0.0471405   0.0000000), wk =   0.0400000
        k(   15) = (   0.0000000   0.0942809   0.0000000), wk =   0.0400000
        k(   16) = (   0.0000000   0.1414214   0.0000000), wk =   0.0400000
        k(   17) = (   0.0000000   0.1885618   0.0000000), wk =   0.0400000
        k(   18) = (   0.0000000   0.2357023   0.0000000), wk =   0.0400000
        k(   19) = (   0.0000000   0.2828427   0.0000000), wk =   0.0400000
        k(   20) = (   0.0000000   0.3299832   0.0000000), wk =   0.0400000
        k(   21) = (   0.0000000   0.3771236   0.0000000), wk =   0.0400000
        k(   22) = (   0.0000000   0.4242641   0.0000000), wk =   0.0400000
        k(   23) = (   0.0000000   0.4714045   0.0000000), wk =   0.0400000
        k(   24) = (   0.0000000   0.5185450   0.0000000), wk =   0.0400000
        k(   25) = (   0.0000000   0.5656854   0.0000000), wk =   0.0400000
        k(   26) = (   0.0000000   0.6128259   0.0000000), wk =   0.0400000
        k(   27) = (   0.0000000   0.6599663   0.0000000), wk =   0.0400000
        k(   28) = (   0.0000000   0.7071068   0.0000000), wk =   0.0400000
        k(   29) = (   0.0353553   0.7071068   0.0353553), wk =   0.0400000
        k(   30) = (   0.0707107   0.7071068   0.0707107), wk =   0.0400000
        k(   31) = (   0.1060660   0.7071068   0.1060660), wk =   0.0400000
        k(   32) = (   0.1414214   0.7071068   0.1414214), wk =   0.0400000
        k(   33) = (   0.1767767   0.7071068   0.1767767), wk =   0.0400000
        k(   34) = (   0.1663781   0.6655123   0.1663781), wk =   0.0400000
        k(   35) = (   0.1559794   0.6239177   0.1559794), wk =   0.0400000
        k(   36) = (   0.1455808   0.5823232   0.1455808), wk =   0.0400000
        k(   37) = (   0.1351822   0.5407287   0.1351822), wk =   0.0400000
        k(   38) = (   0.1247835   0.4991342   0.1247835), wk =   0.0400000
        k(   39) = (   0.1143849   0.4575397   0.1143849), wk =   0.0400000
        k(   40) = (   0.1039863   0.4159452   0.1039863), wk =   0.0400000
        k(   41) = (   0.0935877   0.3743506   0.0935877), wk =   0.0400000
        k(   42) = (   0.0831890   0.3327561   0.0831890), wk =   0.0400000
        k(   43) = (   0.0727904   0.2911616   0.0727904), wk =   0.0400000
        k(   44) = (   0.0623918   0.2495671   0.0623918), wk =   0.0400000
        k(   45) = (   0.0519931   0.2079726   0.0519931), wk =   0.0400000
        k(   46) = (   0.0415945   0.1663781   0.0415945), wk =   0.0400000
        k(   47) = (   0.0311959   0.1247835   0.0311959), wk =   0.0400000
        k(   48) = (   0.0207973   0.0831890   0.0207973), wk =   0.0400000
        k(   49) = (   0.0103986   0.0415945   0.0103986), wk =   0.0400000
        k(   50) = (   0.0000000   0.0000000   0.0000000), wk =   0.0400000

                       cryst. coord.
        k(    1) = (   0.5000000   0.5000000   0.5000000), wk =   0.0400000
        k(    2) = (   0.4583333   0.4583333   0.4583333), wk =   0.0400000
        k(    3) = (   0.4166667   0.4166667   0.4166667), wk =   0.0400000
        k(    4) = (   0.3750000   0.3750000   0.3750000), wk =   0.0400000
        k(    5) = (   0.3333333   0.3333333   0.3333333), wk =   0.0400000
        k(    6) = (   0.2916667   0.2916667   0.2916667), wk =   0.0400000
        k(    7) = (   0.2500000   0.2500000   0.2500000), wk =   0.0400000
        k(    8) = (   0.2083333   0.2083333   0.2083333), wk =   0.0400000
        k(    9) = (   0.1666667   0.1666667   0.1666667), wk =   0.0400000
        k(   10) = (   0.1250000   0.1250000   0.1250000), wk =   0.0400000
        k(   11) = (   0.0833333   0.0833333   0.0833333), wk =   0.0400000
        k(   12) = (   0.0416667   0.0416667   0.0416667), wk =   0.0400000
        k(   13) = (   0.0000000   0.0000000   0.0000000), wk =   0.0400000
        k(   14) = (   0.0333333   0.0000000   0.0333333), wk =   0.0400000
        k(   15) = (   0.0666667   0.0000000   0.0666667), wk =   0.0400000
        k(   16) = (   0.1000000   0.0000000   0.1000000), wk =   0.0400000
        k(   17) = (   0.1333333   0.0000000   0.1333333), wk =   0.0400000
        k(   18) = (   0.1666667   0.0000000   0.1666667), wk =   0.0400000
        k(   19) = (   0.2000000   0.0000000   0.2000000), wk =   0.0400000
        k(   20) = (   0.2333333   0.0000000   0.2333333), wk =   0.0400000
        k(   21) = (   0.2666667   0.0000000   0.2666667), wk =   0.0400000
        k(   22) = (   0.3000000   0.0000000   0.3000000), wk =   0.0400000
        k(   23) = (   0.3333333   0.0000000   0.3333333), wk =   0.0400000
        k(   24) = (   0.3666667   0.0000000   0.3666667), wk =   0.0400000
        k(   25) = (   0.4000000   0.0000000   0.4000000), wk =   0.0400000
        k(   26) = (   0.4333333   0.0000000   0.4333333), wk =   0.0400000
        k(   27) = (   0.4666667   0.0000000   0.4666667), wk =   0.0400000
        k(   28) = (   0.5000000   0.0000000   0.5000000), wk =   0.0400000
        k(   29) = (   0.5250000   0.0500000   0.5250000), wk =   0.0400000
        k(   30) = (   0.5500000   0.1000000   0.5500000), wk =   0.0400000
        k(   31) = (   0.5750000   0.1500000   0.5750000), wk =   0.0400000
        k(   32) = (   0.6000000   0.2000000   0.6000000), wk =   0.0400000
        k(   33) = (   0.6250000   0.2500000   0.6250000), wk =   0.0400000
        k(   34) = (   0.5882353   0.2352941   0.5882353), wk =   0.0400000
        k(   35) = (   0.5514706   0.2205882   0.5514706), wk =   0.0400000
        k(   36) = (   0.5147059   0.2058824   0.5147059), wk =   0.0400000
        k(   37) = (   0.4779412   0.1911765   0.4779412), wk =   0.0400000
        k(   38) = (   0.4411765   0.1764706   0.4411765), wk =   0.0400000
        k(   39) = (   0.4044118   0.1617647   0.4044118), wk =   0.0400000
        k(   40) = (   0.3676471   0.1470588   0.3676471), wk =   0.0400000
        k(   41) = (   0.3308824   0.1323529   0.3308824), wk =   0.0400000
        k(   42) = (   0.2941176   0.1176471   0.2941176), wk =   0.0400000
        k(   43) = (   0.2573529   0.1029412   0.2573529), wk =   0.0400000
        k(   44) = (   0.2205882   0.0882353   0.2205882), wk =   0.0400000
        k(   45) = (   0.1838235   0.0735294   0.1838235), wk =   0.0400000
        k(   46) = (   0.1470588   0.0588235   0.1470588), wk =   0.0400000
        k(   47) = (   0.1102941   0.0441176   0.1102941), wk =   0.0400000
        k(   48) = (   0.0735294   0.0294118   0.0735294), wk =   0.0400000
        k(   49) = (   0.0367647   0.0147059   0.0367647), wk =   0.0400000
        k(   50) = (   0.0000000   0.0000000   0.0000000), wk =   0.0400000

     Dense  grid:    14553 G-vectors     FFT dimensions: (  36,  36,  36)

     Smooth grid:    10417 G-vectors     FFT dimensions: (  32,  32,  32)

     Estimated max dynamical RAM per process >      26.90Mb

     Check: negative/imaginary core charge=   -0.000002    0.000000

     The potential is recalculated from file :
     ./pwscf.save/charge-density.dat

     Starting wfc are   18 randomized atomic wfcs

     Band Structure Calculation
     Davidson diagonalization with overlap

     Computing kpt #:     1
     total cpu time spent up to now is        1.0 secs

     Computing kpt #:     2
     total cpu time spent up to now is        1.2 secs

     Computing kpt #:     3
     total cpu time spent up to now is        1.5 secs

     Computing kpt #:     4
     total cpu time spent up to now is        1.8 secs

     Computing kpt #:     5
     total cpu time spent up to now is        2.1 secs

     Computing kpt #:     6
     total cpu time spent up to now is        2.3 secs

     Computing kpt #:     7
     total cpu time spent up to now is        2.6 secs

     Computing kpt #:     8
     total cpu time spent up to now is        2.9 secs

     Computing kpt #:     9
     total cpu time spent up to now is        3.1 secs

     Computing kpt #:    10
     total cpu time spent up to now is        3.4 secs

     Computing kpt #:    11
     total cpu time spent up to now is        3.6 secs

     Computing kpt #:    12
     total cpu time spent up to now is        3.9 secs

     Computing kpt #:    13
     total cpu time spent up to now is        4.1 secs

     Computing kpt #:    14
     total cpu time spent up to now is        4.4 secs

     Computing kpt #:    15
     total cpu time spent up to now is        4.6 secs

     Computing kpt #:    16
     total cpu time spent up to now is        4.9 secs

     Computing kpt #:    17
     total cpu time spent up to now is        5.1 secs

     Computing kpt #:    18
     total cpu time spent up to now is        5.4 secs

     Computing kpt #:    19
     total cpu time spent up to now is        5.7 secs

     Computing kpt #:    20
     total cpu time spent up to now is        5.9 secs

     Computing kpt #:    21
     total cpu time spent up to now is        6.2 secs

     Computing kpt #:    22
     total cpu time spent up to now is        6.4 secs

     Computing kpt #:    23
     total cpu time spent up to now is        6.7 secs

     Computing kpt #:    24
     total cpu time spent up to now is        7.0 secs

     Computing kpt #:    25
     total cpu time spent up to now is        7.2 secs

     Computing kpt #:    26
     total cpu time spent up to now is        7.5 secs

     Computing kpt #:    27
     total cpu time spent up to now is        7.8 secs

     Computing kpt #:    28
     total cpu time spent up to now is        8.1 secs

     Computing kpt #:    29
     total cpu time spent up to now is        8.3 secs

     Computing kpt #:    30
     total cpu time spent up to now is        8.6 secs

     Computing kpt #:    31
     total cpu time spent up to now is        8.9 secs

     Computing kpt #:    32
     total cpu time spent up to now is        9.2 secs

     Computing kpt #:    33
     total cpu time spent up to now is        9.4 secs

     Computing kpt #:    34
     total cpu time spent up to now is        9.7 secs

     Computing kpt #:    35
     total cpu time spent up to now is       10.0 secs

     Computing kpt #:    36
     total cpu time spent up to now is       10.3 secs

     Computing kpt #:    37
     total cpu time spent up to now is       10.6 secs

     Computing kpt #:    38
     total cpu time spent up to now is       10.8 secs

     Computing kpt #:    39
     total cpu time spent up to now is       11.1 secs

     Computing kpt #:    40
     total cpu time spent up to now is       11.4 secs

     Computing kpt #:    41
     total cpu time spent up to now is       11.7 secs

     Computing kpt #:    42
     total cpu time spent up to now is       11.9 secs

     Computing kpt #:    43
     total cpu time spent up to now is       12.2 secs

     Computing kpt #:    44
     total cpu time spent up to now is       12.5 secs

     Computing kpt #:    45
     total cpu time spent up to now is       12.8 secs

     Computing kpt #:    46
     total cpu time spent up to now is       13.0 secs

     Computing kpt #:    47
     total cpu time spent up to now is       13.3 secs

     Computing kpt #:    48
     total cpu time spent up to now is       13.5 secs

     Computing kpt #:    49
     total cpu time spent up to now is       13.8 secs

     Computing kpt #:    50
     total cpu time spent up to now is       14.0 secs

     ethr =  3.57E-10,  avg # of iterations = 11.3

     total cpu time spent up to now is       14.0 secs

     End of band structure calculation

          k = 0.3536 0.3536 0.3536 (  1308 PWs)   bands (ev):

   -16.3561 -16.3561 -16.3141 -16.2542 -16.2542 -16.1197 -16.1197 -16.1054
   -16.0441 -16.0441  -2.2130   0.8731   7.0650   7.0650   8.6530  12.2129
    12.2129  15.6049

          k = 0.3241 0.3241 0.3241 (  1311 PWs)   bands (ev):

   -16.3560 -16.3560 -16.3144 -16.2545 -16.2545 -16.1195 -16.1195 -16.1051
   -16.0443 -16.0443  -2.2895   0.9930   7.0801   7.0801   8.6675  12.2190
    12.2190  15.6256

          k = 0.2946 0.2946 0.2946 (  1305 PWs)   bands (ev):

   -16.3556 -16.3556 -16.3153 -16.2554 -16.2554 -16.1190 -16.1190 -16.1040
   -16.0448 -16.0448  -2.4883   1.3218   7.1253   7.1253   8.7106  12.2340
    12.2340  15.6808

          k = 0.2652 0.2652 0.2652 (  1302 PWs)   bands (ev):

   -16.3549 -16.3549 -16.3167 -16.2570 -16.2570 -16.1180 -16.1180 -16.1023
   -16.0456 -16.0456  -2.7516   1.8008   7.1999   7.1999   8.7819  12.2480
    12.2480  15.7272

          k = 0.2357 0.2357 0.2357 (  1308 PWs)   bands (ev):

   -16.3537 -16.3537 -16.3186 -16.2595 -16.2595 -16.1164 -16.1164 -16.1001
   -16.0469 -16.0469  -3.0340   2.3832   7.3032   7.3032   8.8797  12.2446
    12.2446  15.5098

          k = 0.2062 0.2062 0.2062 (  1314 PWs)   bands (ev):

   -16.3521 -16.3521 -16.3207 -16.2630 -16.2630 -16.1140 -16.1140 -16.0976
   -16.0487 -16.0487  -3.3087   3.0403   7.4334   7.4334   9.0016  12.2022
    12.2022  14.8548

          k = 0.1768 0.1768 0.1768 (  1323 PWs)   bands (ev):

   -16.3498 -16.3498 -16.3230 -16.2675 -16.2675 -16.1108 -16.1108 -16.0949
   -16.0511 -16.0511  -3.5608   3.7541   7.5877   7.5877   9.1422  12.1009
    12.1009  14.1049

          k = 0.1473 0.1473 0.1473 (  1324 PWs)   bands (ev):

   -16.3470 -16.3470 -16.3252 -16.2728 -16.2728 -16.1067 -16.1067 -16.0923
   -16.0540 -16.0540  -3.7818   4.5120   7.7618   7.7618   9.2916  11.9335
    11.9335  13.3556

          k = 0.1179 0.1179 0.1179 (  1315 PWs)   bands (ev):

   -16.3436 -16.3436 -16.3273 -16.2786 -16.2786 -16.1020 -16.1020 -16.0898
   -16.0574 -16.0574  -3.9669   5.3031   7.9482   7.9482   9.4290  11.7129
    11.7129  12.6298

          k = 0.0884 0.0884 0.0884 (  1309 PWs)   bands (ev):

   -16.3397 -16.3397 -16.3291 -16.2847 -16.2847 -16.0969 -16.0969 -16.0877
   -16.0614 -16.0614  -4.1130   6.1158   8.1351   8.1351   9.5095  11.4698
    11.4698  11.9583

          k = 0.0589 0.0589 0.0589 (  1309 PWs)   bands (ev):

   -16.3359 -16.3359 -16.3304 -16.2903 -16.2903 -16.0917 -16.0917 -16.0861
   -16.0657 -16.0657  -4.2185   6.9354   8.3032   8.3032   9.4380  11.2445
    11.2445  11.4160

          k = 0.0295 0.0295 0.0295 (  1309 PWs)   bands (ev):

   -16.3328 -16.3328 -16.3313 -16.2945 -16.2945 -16.0871 -16.0871 -16.0852
   -16.0697 -16.0697  -4.2821   7.7390   8.4248   8.4248   9.0927  11.0817
    11.0817  11.1067

          k = 0.0000 0.0000 0.0000 (  1291 PWs)   bands (ev):

   -16.3316 -16.3316 -16.3316 -16.2961 -16.2961 -16.0848 -16.0848 -16.0848
   -16.0717 -16.0717  -4.3034   8.4700   8.4700   8.4700   8.5016  11.0217
    11.0217  11.0217

          k = 0.0000 0.0471 0.0000 (  1315 PWs)   bands (ev):

   -16.3326 -16.3320 -16.3320 -16.2955 -16.2939 -16.0896 -16.0842 -16.0842
   -16.0723 -16.0683  -4.2852   7.8428   8.3800   8.3800   9.1227  10.9607
    11.1347  11.1347

          k = 0.0000 0.0943 0.0000 (  1299 PWs)   bands (ev):

   -16.3350 -16.3333 -16.3333 -16.2935 -16.2881 -16.0990 -16.0822 -16.0822
   -16.0741 -16.0632  -4.2308   7.1999   8.1486   8.1486   9.7425  10.7961
    11.4349  11.4349

          k = 0.0000 0.1414 0.0000 (  1299 PWs)   bands (ev):

   -16.3376 -16.3353 -16.3353 -16.2904 -16.2797 -16.1101 -16.0791 -16.0791
   -16.0770 -16.0589  -4.1402   6.5602   7.8436   7.8436  10.3257  10.5667
    11.8539  11.8539

          k = 0.0000 0.1886 0.0000 (  1307 PWs)   bands (ev):

   -16.3397 -16.3380 -16.3380 -16.2860 -16.2697 -16.1225 -16.0810 -16.0750
   -16.0750 -16.0562  -4.0136   5.9255   7.5125   7.5125  10.3094  10.8363
    12.3430  12.3430

          k = 0.0000 0.2357 0.0000 (  1311 PWs)   bands (ev):

   -16.3411 -16.3411 -16.3408 -16.2804 -16.2584 -16.1359 -16.0861 -16.0701
   -16.0701 -16.0549  -3.8514   5.2968   7.1816   7.1816  10.0501  11.2131
    12.8749  12.8749

          k = 0.0000 0.2828 0.0000 (  1307 PWs)   bands (ev):

   -16.3445 -16.3445 -16.3407 -16.2737 -16.2462 -16.1500 -16.0922 -16.0647
   -16.0647 -16.0553  -3.6539   4.6750   6.8649   6.8649   9.8053  11.3818
    13.4341  13.4341

          k = 0.0000 0.3300 0.0000 (  1307 PWs)   bands (ev):

   -16.3481 -16.3481 -16.3394 -16.2661 -16.2333 -16.1646 -16.0994 -16.0591
   -16.0591 -16.0573  -3.4216   4.0608   6.5707   6.5707   9.5854  11.3175
    14.0110  14.0110

          k = 0.0000 0.3771 0.0000 (  1299 PWs)   bands (ev):

   -16.3516 -16.3516 -16.3366 -16.2575 -16.2199 -16.1797 -16.1074 -16.0609
   -16.0534 -16.0534  -3.1551   3.4550   6.3041   6.3041   9.3972  11.0840
    14.5991  14.5991

          k = 0.0000 0.4243 0.0000 (  1311 PWs)   bands (ev):

   -16.3549 -16.3549 -16.3325 -16.2481 -16.2060 -16.1949 -16.1163 -16.0661
   -16.0480 -16.0480  -2.8552   2.8589   6.0684   6.0684   9.2452  10.7700
    15.1930  15.1930

          k = 0.0000 0.4714 0.0000 (  1299 PWs)   bands (ev):

   -16.3580 -16.3580 -16.3271 -16.2380 -16.2101 -16.1920 -16.1258 -16.0726
   -16.0429 -16.0429  -2.5228   2.2738   5.8659   5.8659   9.1324  10.4367
    15.7872  15.7872

          k = 0.0000 0.5185 0.0000 (  1299 PWs)   bands (ev):

   -16.3606 -16.3606 -16.3202 -16.2273 -16.2252 -16.1778 -16.1361 -16.0806
   -16.0386 -16.0386  -2.1589   1.7017   5.6983   5.6983   9.0612  10.1177
    16.3735  16.3735

          k = 0.0000 0.5657 0.0000 (  1302 PWs)   bands (ev):

   -16.3627 -16.3627 -16.3120 -16.2399 -16.2162 -16.1638 -16.1469 -16.0898
   -16.0350 -16.0350  -1.7648   1.1445   5.5668   5.5668   9.0334   9.8300
    16.9367  16.9367

          k = 0.0000 0.6128 0.0000 (  1302 PWs)   bands (ev):

   -16.3643 -16.3643 -16.3026 -16.2541 -16.2047 -16.1581 -16.1499 -16.1001
   -16.0323 -16.0323  -1.3418   0.6044   5.4723   5.4723   9.0505   9.5826
    17.4447  17.4447

          k = 0.0000 0.6600 0.0000 (  1302 PWs)   bands (ev):

   -16.3652 -16.3652 -16.2920 -16.2676 -16.1930 -16.1696 -16.1365 -16.1115
   -16.0307 -16.0307  -0.8915   0.0836   5.4154   5.4154   9.1134   9.3796
    17.8300  17.8300

          k = 0.0000 0.7071 0.0000 (  1298 PWs)   bands (ev):

   -16.3655 -16.3655 -16.2803 -16.2803 -16.1812 -16.1812 -16.1236 -16.1236
   -16.0301 -16.0301  -0.4157  -0.4157   5.3964   5.3964   9.2231   9.2231
    17.9817  17.9817

          k = 0.0354 0.7071 0.0354 (  1302 PWs)   bands (ev):

   -16.3671 -16.3656 -16.2801 -16.2768 -16.1817 -16.1810 -16.1267 -16.1237
   -16.0301 -16.0288  -0.4304  -0.3921   5.2773   5.4146   9.2402   9.4221
    17.7828  17.8421

          k = 0.0707 0.7071 0.0707 (  1302 PWs)   bands (ev):

   -16.3711 -16.3658 -16.2798 -16.2673 -16.1832 -16.1802 -16.1353 -16.1239
   -16.0300 -16.0253  -0.4772  -0.3211   4.9889   5.4688   9.2912   9.9527
    17.3281  17.4757

          k = 0.1061 0.7071 0.1061 (  1310 PWs)   bands (ev):

   -16.3757 -16.3660 -16.2792 -16.2535 -16.1856 -16.1788 -16.1479 -16.1241
   -16.0298 -16.0212  -0.5632  -0.2028   4.6517   5.5582   9.3748  10.6999
    16.7851  16.9783

          k = 0.1414 0.7071 0.1414 (  1302 PWs)   bands (ev):

   -16.3798 -16.3663 -16.2785 -16.2370 -16.1889 -16.1768 -16.1630 -16.1244
   -16.0296 -16.0175  -0.6974  -0.0372   4.3521   5.6816   9.4890  11.5835
    16.2269  16.4220

          k = 0.1768 0.7071 0.1768 (  1296 PWs)   bands (ev):

   -16.3826 -16.3666 -16.2779 -16.2191 -16.1930 -16.1794 -16.1743 -16.1247
   -16.0295 -16.0152  -0.8866   0.1756   4.1380   5.8369   9.6303  12.5555
    15.6850  15.8480

          k = 0.1664 0.6655 0.1664 (  1296 PWs)   bands (ev):

   -16.3816 -16.3663 -16.2796 -16.2226 -16.1967 -16.1763 -16.1701 -16.1231
   -16.0300 -16.0161  -0.9346   0.2188   4.2232   5.8013   9.6015  12.2769
    15.5815  15.9108

          k = 0.1560 0.6239 0.1560 (  1299 PWs)   bands (ev):

   -16.3800 -16.3654 -16.2841 -16.2220 -16.2050 -16.1771 -16.1614 -16.1185
   -16.0312 -16.0179  -1.1648   0.4549   4.3736   5.7955   9.6050  12.0357
    15.2725  15.8063

          k = 0.1456 0.5823 0.1456 (  1302 PWs)   bands (ev):

   -16.3777 -16.3641 -16.2907 -16.2180 -16.2143 -16.1812 -16.1519 -16.1118
   -16.0332 -16.0205  -1.4743   0.7928   4.5763   5.8204   9.6382  11.8367
    14.9344  15.6105

          k = 0.1352 0.5407 0.1352 (  1301 PWs)   bands (ev):

   -16.3750 -16.3623 -16.2982 -16.2235 -16.2117 -16.1874 -16.1425 -16.1042
   -16.0358 -16.0237  -1.8074   1.1855   4.8204   5.8765   9.6961  11.6835
    14.6012  15.3695

          k = 0.1248 0.4991 0.1248 (  1300 PWs)   bands (ev):

   -16.3718 -16.3602 -16.3057 -16.2326 -16.2050 -16.1938 -16.1334 -16.0966
   -16.0392 -16.0276  -2.1406   1.6163   5.0970   5.9639   9.7718  11.5778
    14.2860  15.1016

          k = 0.1144 0.4575 0.1144 (  1296 PWs)   bands (ev):

   -16.3683 -16.3578 -16.3127 -16.2412 -16.2068 -16.1914 -16.1248 -16.0896
   -16.0430 -16.0317  -2.4625   2.0783   5.3985   6.0827   9.8567  11.5165
    14.0001  14.8117

          k = 0.1040 0.4159 0.1040 (  1305 PWs)   bands (ev):

   -16.3646 -16.3551 -16.3188 -16.2494 -16.2155 -16.1821 -16.1169 -16.0836
   -16.0473 -16.0361  -2.7665   2.5680   5.7186   6.2321   9.9440  11.4858
    13.7583  14.4977

          k = 0.0936 0.3744 0.0936 (  1315 PWs)   bands (ev):

   -16.3608 -16.3523 -16.3239 -16.2571 -16.2252 -16.1715 -16.1095 -16.0790
   -16.0517 -16.0404  -3.0484   3.0833   6.0517   6.4114  10.0306  11.4564
    13.5777  14.1558

          k = 0.0832 0.3328 0.0832 (  1315 PWs)   bands (ev):

   -16.3569 -16.3494 -16.3278 -16.2642 -16.2353 -16.1604 -16.1030 -16.0761
   -16.0562 -16.0443  -3.3053   3.6226   6.3926   6.6191  10.1187  11.3886
    13.4610  13.7836

          k = 0.0728 0.2912 0.0728 (  1320 PWs)   bands (ev):

   -16.3531 -16.3464 -16.3306 -16.2707 -16.2454 -16.1490 -16.0972 -16.0749
   -16.0606 -16.0476  -3.5352   4.1842   6.7363   6.8532  10.2130  11.2533
    13.3558  13.3830

          k = 0.0624 0.2496 0.0624 (  1318 PWs)   bands (ev):

   -16.3494 -16.3434 -16.3323 -16.2766 -16.2554 -16.1377 -16.0923 -16.0754
   -16.0647 -16.0504  -3.7366   4.7662   7.0772   7.1104  10.3175  11.0483
    12.9605  13.1410

          k = 0.0520 0.2080 0.0520 (  1313 PWs)   bands (ev):

   -16.3457 -16.3405 -16.3331 -16.2819 -16.2651 -16.1265 -16.0884 -16.0771
   -16.0681 -16.0531  -3.9084   5.3666   7.3859   7.4090  10.4249  10.7945
    12.5278  12.7534

          k = 0.0416 0.1664 0.0416 (  1309 PWs)   bands (ev):

   -16.3421 -16.3378 -16.3331 -16.2866 -16.2743 -16.1158 -16.0858 -16.0793
   -16.0706 -16.0561  -4.0499   5.9822   7.6716   7.7234  10.3820  10.6508
    12.1006  12.2675

          k = 0.0312 0.1248 0.0312 (  1307 PWs)   bands (ev):

   -16.3386 -16.3354 -16.3327 -16.2905 -16.2825 -16.1057 -16.0846 -16.0815
   -16.0718 -16.0597  -4.1605   6.6092   7.9540   8.0085  10.0336  10.7603
    11.7001  11.7845

          k = 0.0208 0.0832 0.0208 (  1307 PWs)   bands (ev):

   -16.3352 -16.3334 -16.3321 -16.2935 -16.2894 -16.0964 -16.0844 -16.0832
   -16.0720 -16.0641  -4.2398   7.2418   8.2094   8.2463   9.5871  10.8885
    11.3559  11.3816

          k = 0.0104 0.0416 0.0104 (  1311 PWs)   bands (ev):

   -16.3326 -16.3320 -16.3317 -16.2954 -16.2943 -16.0887 -16.0847 -16.0844
   -16.0718 -16.0689  -4.2875   7.8716   8.3982   8.4103   9.0654  10.9853
    11.1121  11.1151

          k = 0.0000 0.0000 0.0000 (  1291 PWs)   bands (ev):

   -16.3316 -16.3316 -16.3316 -16.2961 -16.2961 -16.0848 -16.0848 -16.0848
   -16.0717 -16.0717  -4.3034   8.4700   8.4700   8.4700   8.5016  11.0217
    11.0217  11.0217

     Writing output data file pwscf.save

     init_run     :      0.72s CPU      0.59s WALL (       1 calls)
     electrons    :     30.22s CPU     13.33s WALL (       1 calls)

     Called by init_run:
     wfcinit      :      0.00s CPU      0.00s WALL (       1 calls)
     wfcinit:atom :      0.09s CPU      0.06s WALL (      50 calls)
     wfcinit:wfcr :      2.55s CPU      1.03s WALL (      50 calls)
     potinit      :      0.05s CPU      0.05s WALL (       1 calls)

     Called by electrons:
     c_bands      :     30.19s CPU     13.32s WALL (       1 calls)
     v_of_rho     :      0.05s CPU      0.04s WALL (       1 calls)
     v_h          :      0.00s CPU      0.00s WALL (       1 calls)
     v_xc         :      0.05s CPU      0.04s WALL (       1 calls)
     newd         :      0.06s CPU      0.09s WALL (       1 calls)

     Called by c_bands:
     init_us_2    :      0.11s CPU      0.07s WALL (      50 calls)
     cegterg      :     26.44s CPU     11.66s WALL (      50 calls)

     Called by sum_band:

     Called by *egterg:
     h_psi        :     20.94s CPU      9.07s WALL (     663 calls)
     s_psi        :      0.58s CPU      0.18s WALL (     663 calls)
     g_psi        :      0.31s CPU      0.12s WALL (     563 calls)
     cdiaghg      :      3.88s CPU      2.04s WALL (     613 calls)
     cegterg:over :      1.28s CPU      0.43s WALL (     563 calls)
     cegterg:upda :      0.89s CPU      0.37s WALL (     563 calls)
     cegterg:last :      0.48s CPU      0.18s WALL (     150 calls)

     Called by h_psi:
     h_psi:pot    :     20.45s CPU      8.98s WALL (     663 calls)
     h_psi:calbec :      0.59s CPU      0.23s WALL (     663 calls)
     vloc_psi     :     19.14s CPU      8.53s WALL (     663 calls)
     add_vuspsi   :      0.72s CPU      0.20s WALL (     663 calls)

     General routines
     calbec       :      0.59s CPU      0.22s WALL (     663 calls)
     fft          :      0.02s CPU      0.02s WALL (      13 calls)
     ffts         :      0.00s CPU      0.00s WALL (       1 calls)
     fftw         :     14.92s CPU      6.78s WALL (   17254 calls)
     interpolate  :      0.00s CPU      0.00s WALL (       1 calls)
     davcio       :      0.00s CPU      0.01s WALL (      50 calls)

     Parallel routines
     fft_scatter  :      2.20s CPU      1.25s WALL (   17268 calls)

     PWSCF        :    31.34s CPU        14.34s WALL


   This run was terminated on:  15:16:10  25Feb2021            

=------------------------------------------------------------------------------=
   JOB DONE.
=------------------------------------------------------------------------------=
