element =  As
struct =  bcc
nbands =  -4
path =  GHNGP
kpts =  (8,8,8)
lattice constant a =  3.367
lattice constant b =  3.367
lattice constant c =  3.367
alpha angle =  90.0

  ___ ___ ___ _ _ _  
 |   |   |_  | | | | 
 | | | | | . | | | | 
 |__ |  _|___|_____|  1.3.1b1
 |___|_|             

User:   inukai@DESKTOP-12SE80T
Date:   Thu Feb 11 19:49:00 2021
Arch:   x86_64
Pid:    13808
Python: 3.6.9
gpaw:   /usr/lib/python3/dist-packages/gpaw
_gpaw:  /usr/lib/python3/dist-packages/_gpaw.cpython-36m-x86_64-linux-gnu.so
ase:    /home/inukai/hotcent/ase-3.19.3/ase (version 3.19.3)
numpy:  /home/inukai/.local/lib/python3.6/site-packages/numpy (version 1.19.5)
scipy:  /home/inukai/.local/lib/python3.6/site-packages/scipy (version 1.5.4)
units:  Angstrom and eV
cores:  1

Input parameters:
  kpts: [8 8 8]
  maxiter: 1500
  mixer: {backend: pulay,
          beta: 0.01,
          method: separate,
          nmaxold: 11,
          weight: 100.0}
  mode: {ecut: 400.0,
         name: pw}
  occupations: {name: fermi-dirac,
                width: 0.02}
  spinpol: True
  xc: PBE

System changes: positions, numbers, cell, pbc, initial_charges, initial_magmoms 

Initialize ...

As-setup:
  name: Arsenic
  id: bf96491e5ab01ad111b1ee6203e85afa
  Z: 33
  valence: 5
  core: 28
  charge: 0.0
  file: /usr/share/gpaw-setups/As.PBE.gz
  cutoffs: 1.06(comp), 1.87(filt), 2.96(core), lmax=2
  valence states:
                energy  radius
    4s(2.00)   -14.487   1.058
    4p(3.00)    -5.196   1.058
    *s          12.725   1.058
    *p          22.016   1.058
    *d           0.000   1.058

  Using partial waves for As as LCAO basis

Reference energy: -61502.973600

Spin-polarized calculation.
Magnetic moment:  0.000000

Occupation numbers:
  Fermi-Dirac: width=0.0200 eV

Convergence criteria:
  Maximum total energy change: 0.0005 eV / electron
  Maximum integral of absolute density change: 0.0001 electrons
  Maximum integral of absolute eigenstate change: 4e-08 eV^2
  Maximum number of iterations: 1500

Symmetries present (total): 48

  ( 1  1  1)  ( 1  1  1)  ( 1  1  1)  ( 1  1  1)  ( 1  1  1)  ( 1  1  1)
  ( 0  0 -1)  ( 0  0 -1)  ( 0 -1  0)  ( 0 -1  0)  (-1  0  0)  (-1  0  0)
  ( 0 -1  0)  (-1  0  0)  ( 0  0 -1)  (-1  0  0)  ( 0  0 -1)  ( 0 -1  0)

  ( 1  0  0)  ( 1  0  0)  ( 1  0  0)  ( 1  0  0)  ( 1  0  0)  ( 1  0  0)
  ( 0  1  0)  ( 0  1  0)  ( 0  0  1)  ( 0  0  1)  (-1 -1 -1)  (-1 -1 -1)
  ( 0  0  1)  (-1 -1 -1)  ( 0  1  0)  (-1 -1 -1)  ( 0  1  0)  ( 0  0  1)

  ( 0  1  0)  ( 0  1  0)  ( 0  1  0)  ( 0  1  0)  ( 0  1  0)  ( 0  1  0)
  ( 1  0  0)  ( 1  0  0)  ( 0  0  1)  ( 0  0  1)  (-1 -1 -1)  (-1 -1 -1)
  ( 0  0  1)  (-1 -1 -1)  ( 1  0  0)  (-1 -1 -1)  ( 1  0  0)  ( 0  0  1)

  ( 0  0  1)  ( 0  0  1)  ( 0  0  1)  ( 0  0  1)  ( 0  0  1)  ( 0  0  1)
  ( 1  0  0)  ( 1  0  0)  ( 0  1  0)  ( 0  1  0)  (-1 -1 -1)  (-1 -1 -1)
  ( 0  1  0)  (-1 -1 -1)  ( 1  0  0)  (-1 -1 -1)  ( 1  0  0)  ( 0  1  0)

  ( 0  0 -1)  ( 0  0 -1)  ( 0  0 -1)  ( 0  0 -1)  ( 0  0 -1)  ( 0  0 -1)
  ( 1  1  1)  ( 1  1  1)  ( 0 -1  0)  ( 0 -1  0)  (-1  0  0)  (-1  0  0)
  ( 0 -1  0)  (-1  0  0)  ( 1  1  1)  (-1  0  0)  ( 1  1  1)  ( 0 -1  0)

  ( 0 -1  0)  ( 0 -1  0)  ( 0 -1  0)  ( 0 -1  0)  ( 0 -1  0)  ( 0 -1  0)
  ( 1  1  1)  ( 1  1  1)  ( 0  0 -1)  ( 0  0 -1)  (-1  0  0)  (-1  0  0)
  ( 0  0 -1)  (-1  0  0)  ( 1  1  1)  (-1  0  0)  ( 1  1  1)  ( 0  0 -1)

  (-1  0  0)  (-1  0  0)  (-1  0  0)  (-1  0  0)  (-1  0  0)  (-1  0  0)
  ( 1  1  1)  ( 1  1  1)  ( 0  0 -1)  ( 0  0 -1)  ( 0 -1  0)  ( 0 -1  0)
  ( 0  0 -1)  ( 0 -1  0)  ( 1  1  1)  ( 0 -1  0)  ( 1  1  1)  ( 0  0 -1)

  (-1 -1 -1)  (-1 -1 -1)  (-1 -1 -1)  (-1 -1 -1)  (-1 -1 -1)  (-1 -1 -1)
  ( 1  0  0)  ( 1  0  0)  ( 0  1  0)  ( 0  1  0)  ( 0  0  1)  ( 0  0  1)
  ( 0  1  0)  ( 0  0  1)  ( 1  0  0)  ( 0  0  1)  ( 1  0  0)  ( 0  1  0)

512 k-points: 8 x 8 x 8 Monkhorst-Pack grid
26 k-points in the irreducible part of the Brillouin zone
       k-points in crystal coordinates                weights
   0:     0.06250000    0.06250000   -0.06250000          6/512
   1:     0.18750000   -0.06250000   -0.06250000          8/512
   2:     0.18750000    0.06250000   -0.06250000         24/512
   3:     0.18750000    0.18750000   -0.18750000          6/512
   4:     0.31250000   -0.06250000   -0.06250000         24/512
   5:     0.31250000    0.06250000   -0.18750000         24/512
   6:     0.31250000    0.06250000   -0.06250000         24/512
   7:     0.31250000    0.18750000   -0.18750000         24/512
   8:     0.31250000    0.31250000   -0.31250000          6/512
   9:     0.31250000    0.31250000    0.18750000         12/512
          ...
  25:     0.43750000    0.43750000    0.43750000          8/512

Wave functions: Plane wave expansion
  Cutoff energy: 400.000 eV
  Number of coefficients (min, max): 339, 366
  Using FFTW library
  Eigensolver: None  MatrixOperator buffer_size: default value or 
                              see value of nblock in input file
Diagonalizer layout: Serial LAPACKOrthonormalizer layout: Serial LAPACK 

Davidson(niter=1, smin=None, normalize=True) 

Densities:
  Coarse grid: 12*12*12 grid
  Fine grid: 24*24*24 grid
  Total Charge: 0.000000 

Density mixing:
  Method: separate
  Backend: pulay
  Linear mixing parameter: 0.01
  Mixing with 11 old densities
  Damping of long wave oscillations: 100 

Hamiltonian:
  XC and Coulomb potentials evaluated on a 24*24*24 grid
  Using the PBE Exchange-Correlation functional
 

Memory estimate:
  Process memory now: 926.95 MiB
  Calculator: 4.06 MiB
    Density: 1.30 MiB
      Arrays: 0.46 MiB
      Localized functions: 0.26 MiB
      Mixer: 0.58 MiB
    Hamiltonian: 0.35 MiB
      Arrays: 0.34 MiB
      XC: 0.00 MiB
      Poisson: 0.00 MiB
      vbar: 0.01 MiB
    Wavefunctions: 2.41 MiB
      Arrays psit_nG: 1.16 MiB
      Eigensolver: 0.05 MiB
      Projections: 0.04 MiB
      Projectors: 0.96 MiB
      Overlap op: 0.02 MiB
      PW-descriptor: 0.17 MiB

Total number of cores used: 1

Number of atoms: 1
Number of atomic orbitals: 4
Number of bands in calculation: 4
Bands to converge: occupied states only
Number of valence electrons: 5

... initialized

Initializing position-dependent things.

Density initialized from atomic densities
Creating initial wave functions:
  4 bands from LCAO basis set

                
                
                
       As       
                
                
                
                

Positions:
   0 As     0.000000    0.000000    0.000000

Unit cell:
           periodic     x           y           z      points  spacing
  1. axis:    yes   -1.683500    1.683500    1.683500    12     0.1984
  2. axis:    yes    1.683500   -1.683500    1.683500    12     0.1984
  3. axis:    yes    1.683500    1.683500   -1.683500    12     0.1984

  Lengths:   2.915908   2.915908   2.915908
  Angles:  109.471221 109.471221 109.471221

Effective grid spacing dv^(1/3) = 0.2227

                     log10-error:    total        iterations:
           time      wfs    density  energy       fermi  poisson  magmom
iter:   1  19:49:02  +0.85   +inf    -4.191098    4               +0.0000
iter:   2  19:49:03  -0.63   +inf    -4.217126    4               +0.0000
iter:   3  19:49:03  -1.78   +inf    -4.219665    3               +0.0000
iter:   4  19:49:04  -2.59  -1.47    -4.219979    3               +0.0000
iter:   5  19:49:04  -2.62  -1.47    -4.216328    5               +0.0000
iter:   6  19:49:05  -2.47  -1.73    -4.215149    6               +0.0000
iter:   7  19:49:06  -3.59  -2.40    -4.215163    2               +0.0000
iter:   8  19:49:06  -4.01  -2.42    -4.215329    3               +0.0000
iter:   9  19:49:07  -3.28  -2.29    -4.215131    3               +0.0000
iter:  10  19:49:08  -4.19  -2.60    -4.215103    3               -0.0000
iter:  11  19:49:08  -5.31  -2.97    -4.215103    2               -0.0000
iter:  12  19:49:09  -5.94  -2.96    -4.215105    2               +0.0000
iter:  13  19:49:10  -6.37  -2.90    -4.215103    2               -0.0000
iter:  14  19:49:10  -5.46  -2.95    -4.215096    3               -0.0000
iter:  15  19:49:11  -6.01  -2.99    -4.215095    2               +0.0000
iter:  16  19:49:12  -6.43  -2.96    -4.215093    2               -0.0000
iter:  17  19:49:12  -5.68  -2.91    -4.215096    2               +0.0002
iter:  18  19:49:13  -5.08  -3.00    -4.215101    3               -0.0000
iter:  19  19:49:14  -6.65  -3.70    -4.215101    2               +0.0000
iter:  20  19:49:14  -7.54  -3.79    -4.215101    2               -0.0000
iter:  21  19:49:15  -7.79  -3.80    -4.215101    2               -0.0000
iter:  22  19:49:16  -6.66  -3.79    -4.215101    2               -0.0000
iter:  23  19:49:17  -7.20  -3.62    -4.215101    2               +0.0001
iter:  24  19:49:17  -7.22  -3.64    -4.215101    2               +0.0001
iter:  25  19:49:18  -6.95  -3.82    -4.215101    2               +0.0000
iter:  26  19:49:19  -6.99  -3.95    -4.215101    2               -0.0000
iter:  27  19:49:19  -7.98  -3.87    -4.215101    2               -0.0000
iter:  28  19:49:20  -8.15  -3.94    -4.215101    2               -0.0000
iter:  29  19:49:21  -6.54  -3.92    -4.215101    2               -0.0001
iter:  30  19:49:21  -6.48  -3.83    -4.215101    2               -0.0000
iter:  31  19:49:22  -6.73  -4.16    -4.215101    2               +0.0000
iter:  32  19:49:23  -6.16  -3.84    -4.215101    2               +0.0000
iter:  33  19:49:23  -7.03  -4.24    -4.215101    2               +0.0000
iter:  34  19:49:24  -7.14  -4.24    -4.215101    2               +0.0000
iter:  35  19:49:25  -8.00  -4.20    -4.215101    2               +0.0000

Converged after 35 iterations.

Dipole moment: (0.000000, 0.000000, 0.000000) |e|*Ang

Total magnetic moment: 0.000025
Local magnetic moments:
   0 As 0.000111

Energy contributions relative to reference atoms: (reference = -61502.973600)

Kinetic:         +5.793867
Potential:       -5.569653
External:        +0.000000
XC:              -4.431072
Entropy (-ST):   -0.002733
Local:           -0.006876
--------------------------
Free energy:     -4.216468
Extrapolated:    -4.215101

Spin contamination: 0.000146 electrons
Fermi level: 7.91936

Warning: Showing only first 2 kpts
                      Up                     Down
 Kpt  Band  Eigenvalues  Occupancy  Eigenvalues  Occupancy
  0     0     -6.65267    0.01172     -6.65268    0.01172
  0     1     13.20759    0.00000     13.20766    0.00000
  0     2     13.51094    0.00000     13.51109    0.00000
  0     3     13.51098    0.00000     13.51113    0.00000

  1     0     -6.26746    0.01562     -6.26747    0.01562
  1     1     10.96984    0.00000     10.96994    0.00000
  1     2     13.07889    0.00000     13.07898    0.00000
  1     3     13.07898    0.00000     13.07907    0.00000


Input parameters:
  convergence: {bands: all}
  eigensolver: {name: cg,
                niter: 5}
  fixdensity: True
  kpts: {npoints: 50,
         path: GHNGP}
  nbands: -4
  symmetry: off

Initialize ...

As-setup:
  name: Arsenic
  id: bf96491e5ab01ad111b1ee6203e85afa
  Z: 33
  valence: 5
  core: 28
  charge: 0.0
  file: /usr/share/gpaw-setups/As.PBE.gz
  cutoffs: 1.06(comp), 1.87(filt), 2.96(core), lmax=2
  valence states:
                energy  radius
    4s(2.00)   -14.487   1.058
    4p(3.00)    -5.196   1.058
    *s          12.725   1.058
    *p          22.016   1.058
    *d           0.000   1.058

  Using partial waves for As as LCAO basis

Reference energy: -61502.973600

Spin-polarized calculation.
Magnetic moment:  0.000000

Occupation numbers:
  Fixed Fermi level
  Fermi-Dirac: width=0.0200 eV

Convergence criteria:
  Maximum total energy change: 0.0005 eV / electron
  Maximum integral of absolute density change: 0.0001 electrons
  Maximum integral of absolute eigenstate change: 4e-08 eV^2
  Maximum number of iterations: 1500

Symmetries present (total): 1

  ( 1  0  0)
  ( 0  1  0)
  ( 0  0  1)

50 k-points
50 k-points in the irreducible part of the Brillouin zone
       k-points in crystal coordinates                weights
   0:     0.00000000    0.00000000    0.00000000          1/50
   1:     0.03571429   -0.03571429    0.03571429          1/50
   2:     0.07142857   -0.07142857    0.07142857          1/50
   3:     0.10714286   -0.10714286    0.10714286          1/50
   4:     0.14285714   -0.14285714    0.14285714          1/50
   5:     0.17857143   -0.17857143    0.17857143          1/50
   6:     0.21428571   -0.21428571    0.21428571          1/50
   7:     0.25000000   -0.25000000    0.25000000          1/50
   8:     0.28571429   -0.28571429    0.28571429          1/50
   9:     0.32142857   -0.32142857    0.32142857          1/50
          ...
  49:     0.25000000    0.25000000    0.25000000          1/50

Wave functions: Plane wave expansion
  Cutoff energy: 400.000 eV
  Number of coefficients (min, max): 336, 370
  Using FFTW library
  Eigensolver: None  MatrixOperator buffer_size: default value or 
                              see value of nblock in input file
Diagonalizer layout: Serial LAPACKOrthonormalizer layout: Serial LAPACK 

CG(niter=5, rtol=3.0e-01) 

No density mixing

Memory estimate:
  Process memory now: 985.89 MiB
  Calculator: 7.38 MiB
    Density: 1.30 MiB
      Arrays: 0.46 MiB
      Localized functions: 0.26 MiB
      Mixer: 0.58 MiB
    Hamiltonian: 0.35 MiB
      Arrays: 0.34 MiB
      XC: 0.00 MiB
      Poisson: 0.00 MiB
      vbar: 0.01 MiB
    Wavefunctions: 5.73 MiB
      Arrays psit_nG: 3.39 MiB
      Eigensolver: 0.06 MiB
      Projections: 0.12 MiB
      Projectors: 1.86 MiB
      Overlap op: 0.03 MiB
      PW-descriptor: 0.27 MiB

Total number of cores used: 1

Number of atoms: 1
Number of atomic orbitals: 4
Number of bands in calculation: 6
Bands to converge: all
Number of valence electrons: 5

... initialized

Initializing position-dependent things.

Creating initial wave functions:
  4 bands from LCAO basis set
  2 bands from random numbers

                
                
                
       As       
                
                
                
                

Positions:
   0 As     0.000000    0.000000    0.000000

Unit cell:
           periodic     x           y           z      points  spacing
  1. axis:    yes   -1.683500    1.683500    1.683500    12     0.1984
  2. axis:    yes    1.683500   -1.683500    1.683500    12     0.1984
  3. axis:    yes    1.683500    1.683500   -1.683500    12     0.1984

  Lengths:   2.915908   2.915908   2.915908
  Angles:  109.471221 109.471221 109.471221

Effective grid spacing dv^(1/3) = 0.2227

                     log10-error:    total        iterations:
           time      wfs    density  energy       fermi  poisson  magmom
iter:   1  19:49:31  +3.83           -2.705913    29              +0.0018
iter:   2  19:49:33  +2.82           -2.855330    28              +0.0008
iter:   3  19:49:35  +1.88           -2.867536    28              +0.0001
iter:   4  19:49:37  +1.05           -2.868120    31              +0.0000
iter:   5  19:49:40  +0.24           -2.868161    29              +0.0000
iter:   6  19:49:42  -0.52           -2.868164    28              +0.0000
iter:   7  19:49:44  -1.34           -2.868165    30              +0.0000
iter:   8  19:49:47  -1.99           -2.868165    29              +0.0000
iter:   9  19:49:49  -2.50           -2.868165    31              +0.0000
iter:  10  19:49:51  -3.09           -2.868165    30              +0.0000
iter:  11  19:49:52  -3.16           -2.868165    29              +0.0000
iter:  12  19:49:54  -3.49           -2.868165    29              +0.0000
iter:  13  19:49:55  -3.40           -2.868165    29              +0.0000
iter:  14  19:49:56  -3.81           -2.868165    29              +0.0000
iter:  15  19:49:57  -3.68           -2.868165    29              +0.0000
iter:  16  19:49:58  -4.02           -2.868165    29              +0.0000
iter:  17  19:49:58  -3.94           -2.868165    29              +0.0000
iter:  18  19:49:59  -4.16           -2.868165    29              +0.0000
iter:  19  19:50:00  -4.19           -2.868165    29              +0.0000
iter:  20  19:50:01  -4.51           -2.868165    29              +0.0000
iter:  21  19:50:02  -4.41           -2.868165    29              +0.0000
iter:  22  19:50:02  -4.50           -2.868165    29              +0.0000
iter:  23  19:50:03  -4.75           -2.868165    29              +0.0000
iter:  24  19:50:04  -4.98           -2.868165    29              +0.0000
iter:  25  19:50:05  -4.89           -2.868165    29              +0.0000
iter:  26  19:50:06  -4.83           -2.868165    29              +0.0000
iter:  27  19:50:06  -4.90           -2.868165    29              +0.0000
iter:  28  19:50:07  -4.85           -2.868165    29              +0.0000
iter:  29  19:50:08  -5.46           -2.868165    29              +0.0000
iter:  30  19:50:09  -4.99           -2.868165    29              +0.0000
iter:  31  19:50:09  -5.06           -2.868165    29              +0.0000
iter:  32  19:50:10  -5.63           -2.868165    29              +0.0000
iter:  33  19:50:11  -4.68           -2.868165    29              +0.0000
iter:  34  19:50:12  -4.97           -2.868165    29              +0.0000
iter:  35  19:50:12  -5.54           -2.868165    29              +0.0000
iter:  36  19:50:13  -5.42           -2.868165    29              +0.0000
iter:  37  19:50:14  -4.26           -2.868165    29              +0.0000
iter:  38  19:50:15  -5.02           -2.868165    29              +0.0000
iter:  39  19:50:15  -5.37           -2.868165    29              +0.0000
iter:  40  19:50:16  -5.11           -2.868165    29              +0.0000
iter:  41  19:50:17  -5.23           -2.868165    29              +0.0000
iter:  42  19:50:18  -5.51           -2.868165    29              +0.0000
iter:  43  19:50:18  -6.01           -2.868165    29              +0.0000
iter:  44  19:50:19  -5.66           -2.868165    29              +0.0000
iter:  45  19:50:20  -4.23           -2.868165    29              +0.0000
iter:  46  19:50:21  -5.35           -2.868165    29              +0.0000
iter:  47  19:50:21  -6.05           -2.868165    29              +0.0000
iter:  48  19:50:22  -5.77           -2.868165    29              +0.0000
iter:  49  19:50:23  -5.18           -2.868165    29              +0.0000
iter:  50  19:50:24  -5.78           -2.868165    29              +0.0000
iter:  51  19:50:24  -5.76           -2.868165    29              +0.0000
iter:  52  19:50:25  -5.94           -2.868165    29              +0.0000
iter:  53  19:50:26  -5.75           -2.868165    29              +0.0000
iter:  54  19:50:27  -5.37           -2.868165    29              +0.0000
iter:  55  19:50:27  -5.79           -2.868165    29              +0.0000
iter:  56  19:50:28  -6.17           -2.868165    29              +0.0000
iter:  57  19:50:29  -5.71           -2.868165    29              +0.0000
iter:  58  19:50:30  -5.94           -2.868165    29              +0.0000
iter:  59  19:50:30  -4.43           -2.868165    29              +0.0000
iter:  60  19:50:31  -4.70           -2.868165    29              +0.0000
iter:  61  19:50:32  -5.88           -2.868165    29              +0.0000
iter:  62  19:50:32  -4.89           -2.868165    29              +0.0000
iter:  63  19:50:33  -6.13           -2.868165    29              +0.0000
iter:  64  19:50:34  -5.14           -2.868165    29              +0.0000
iter:  65  19:50:34  -5.93           -2.868165    29              +0.0000
iter:  66  19:50:35  -6.38           -2.868165    29              +0.0000
iter:  67  19:50:36  -6.36           -2.868165    29              +0.0000
iter:  68  19:50:37  -5.90           -2.868165    29              +0.0000
iter:  69  19:50:37  -5.74           -2.868165    29              +0.0000
iter:  70  19:50:38  -6.25           -2.868165    29              +0.0000
iter:  71  19:50:39  -6.06           -2.868165    29              +0.0000
iter:  72  19:50:39  -5.56           -2.868165    29              +0.0000
iter:  73  19:50:40  -5.43           -2.868165    29              +0.0000
iter:  74  19:50:41  -6.07           -2.868165    29              +0.0000
iter:  75  19:50:42  -4.71           -2.868165    29              +0.0000
iter:  76  19:50:42  -5.57           -2.868165    29              +0.0000
iter:  77  19:50:43  -6.20           -2.868165    29              +0.0000
iter:  78  19:50:44  -5.87           -2.868165    29              +0.0000
iter:  79  19:50:44  -6.45           -2.868165    29              +0.0000
iter:  80  19:50:45  -6.22           -2.868165    29              +0.0000
iter:  81  19:50:46  -6.54           -2.868165    29              +0.0000
iter:  82  19:50:47  -6.63           -2.868165    29              +0.0000
iter:  83  19:50:47  -6.52           -2.868165    29              +0.0000
iter:  84  19:50:48  -6.63           -2.868165    29              +0.0000
iter:  85  19:50:49  -6.67           -2.868165    29              +0.0000
iter:  86  19:50:49  -6.74           -2.868165    29              +0.0000
iter:  87  19:50:50  -6.25           -2.868165    29              +0.0000
iter:  88  19:50:51  -6.42           -2.868165    29              +0.0000
iter:  89  19:50:52  -6.42           -2.868165    29              +0.0000
iter:  90  19:50:52  -5.91           -2.868165    29              +0.0000
iter:  91  19:50:53  -6.42           -2.868165    29              +0.0000
iter:  92  19:50:54  -6.44           -2.868165    29              +0.0000
iter:  93  19:50:54  -6.40           -2.868165    29              +0.0000
iter:  94  19:50:55  -6.58           -2.868165    29              +0.0000
iter:  95  19:50:56  -6.78           -2.868165    29              +0.0000
iter:  96  19:50:57  -6.85           -2.868165    29              +0.0000
iter:  97  19:50:57  -6.60           -2.868165    29              +0.0000
iter:  98  19:50:58  -6.34           -2.868165    29              +0.0000
iter:  99  19:50:59  -6.27           -2.868165    29              +0.0000
iter: 100  19:50:59  -6.85           -2.868165    29              +0.0000
iter: 101  19:51:00  -6.60           -2.868165    29              +0.0000
iter: 102  19:51:01  -6.74           -2.868165    29              +0.0000
iter: 103  19:51:02  -6.66           -2.868165    29              +0.0000
iter: 104  19:51:02  -6.24           -2.868165    29              +0.0000
iter: 105  19:51:03  -6.56           -2.868165    29              +0.0000
iter: 106  19:51:04  -6.96           -2.868165    29              +0.0000
iter: 107  19:51:04  -6.74           -2.868165    29              +0.0000
iter: 108  19:51:05  -6.91           -2.868165    29              +0.0000
iter: 109  19:51:06  -6.85           -2.868165    29              +0.0000
iter: 110  19:51:06  -6.84           -2.868165    29              +0.0000
iter: 111  19:51:07  -6.58           -2.868165    29              +0.0000
iter: 112  19:51:08  -6.79           -2.868165    29              +0.0000
iter: 113  19:51:09  -6.83           -2.868165    29              +0.0000
iter: 114  19:51:09  -6.55           -2.868165    29              +0.0000
iter: 115  19:51:10  -5.77           -2.868165    29              +0.0000
iter: 116  19:51:11  -6.86           -2.868165    29              +0.0000
iter: 117  19:51:11  -6.69           -2.868165    29              +0.0000
iter: 118  19:51:12  -6.07           -2.868165    29              +0.0000
iter: 119  19:51:13  -6.70           -2.868165    29              +0.0000
iter: 120  19:51:13  -6.76           -2.868165    29              +0.0000
iter: 121  19:51:14  -6.55           -2.868165    29              +0.0000
iter: 122  19:51:15  -6.86           -2.868165    29              +0.0000
iter: 123  19:51:15  -6.86           -2.868165    29              +0.0000
iter: 124  19:51:16  -6.99           -2.868165    29              +0.0000
iter: 125  19:51:17  -6.89           -2.868165    29              +0.0000
iter: 126  19:51:18  -6.96           -2.868165    29              +0.0000
iter: 127  19:51:18  -6.79           -2.868165    29              +0.0000
iter: 128  19:51:19  -6.97           -2.868165    29              +0.0000
iter: 129  19:51:20  -6.92           -2.868165    29              +0.0000
iter: 130  19:51:20  -6.99           -2.868165    29              +0.0000
iter: 131  19:51:21  -6.91           -2.868165    29              +0.0000
iter: 132  19:51:22  -7.02           -2.868165    29              +0.0000
iter: 133  19:51:22  -6.78           -2.868165    29              +0.0000
iter: 134  19:51:23  -6.42           -2.868165    29              +0.0000
iter: 135  19:51:24  -6.93           -2.868165    29              +0.0000
iter: 136  19:51:25  -6.99           -2.868165    29              +0.0000
iter: 137  19:51:25  -6.91           -2.868165    29              +0.0000
iter: 138  19:51:26  -7.03           -2.868165    29              +0.0000
iter: 139  19:51:27  -6.72           -2.868165    29              +0.0000
iter: 140  19:51:27  -6.36           -2.868165    29              +0.0000
iter: 141  19:51:28  -6.78           -2.868165    29              +0.0000
iter: 142  19:51:29  -7.04           -2.868165    29              +0.0000
iter: 143  19:51:29  -6.86           -2.868165    29              +0.0000
iter: 144  19:51:30  -6.68           -2.868165    29              +0.0000
iter: 145  19:51:31  -6.78           -2.868165    29              +0.0000
iter: 146  19:51:31  -7.05           -2.868165    29              +0.0000
iter: 147  19:51:32  -6.94           -2.868165    29              +0.0000
iter: 148  19:51:33  -6.99           -2.868165    29              +0.0000
iter: 149  19:51:34  -6.90           -2.868165    29              +0.0000
iter: 150  19:51:34  -7.02           -2.868165    29              +0.0000
iter: 151  19:51:35  -6.94           -2.868165    29              +0.0000
iter: 152  19:51:36  -7.05           -2.868165    29              +0.0000
iter: 153  19:51:37  -6.81           -2.868165    29              +0.0000
iter: 154  19:51:37  -7.01           -2.868165    29              +0.0000
iter: 155  19:51:38  -6.95           -2.868165    29              +0.0000
iter: 156  19:51:39  -7.05           -2.868165    29              +0.0000
iter: 157  19:51:39  -6.95           -2.868165    29              +0.0000
iter: 158  19:51:40  -7.06           -2.868165    29              +0.0000
iter: 159  19:51:41  -6.94           -2.868165    29              +0.0000
iter: 160  19:51:42  -6.86           -2.868165    29              +0.0000
iter: 161  19:51:42  -6.92           -2.868165    29              +0.0000
iter: 162  19:51:43  -7.06           -2.868165    29              +0.0000
iter: 163  19:51:44  -6.95           -2.868165    29              +0.0000
iter: 164  19:51:44  -7.04           -2.868165    29              +0.0000
iter: 165  19:51:45  -6.95           -2.868165    29              +0.0000
iter: 166  19:51:46  -7.03           -2.868165    29              +0.0000
iter: 167  19:51:46  -6.96           -2.868165    29              +0.0000
iter: 168  19:51:47  -6.98           -2.868165    29              +0.0000
iter: 169  19:51:48  -6.95           -2.868165    29              +0.0000
iter: 170  19:51:48  -6.79           -2.868165    29              +0.0000
iter: 171  19:51:49  -6.67           -2.868165    29              +0.0000
iter: 172  19:51:50  -6.83           -2.868165    29              +0.0000
iter: 173  19:51:50  -5.41           -2.868165    29              +0.0000
iter: 174  19:51:51  -6.61           -2.868165    29              +0.0000
iter: 175  19:51:52  -6.87           -2.868165    29              +0.0000
iter: 176  19:51:52  -7.06           -2.868165    29              +0.0000
iter: 177  19:51:53  -6.97           -2.868165    29              +0.0000
iter: 178  19:51:54  -7.06           -2.868165    29              +0.0000
iter: 179  19:51:54  -6.97           -2.868165    29              +0.0000
iter: 180  19:51:55  -7.04           -2.868165    29              +0.0000
iter: 181  19:51:56  -6.98           -2.868165    29              +0.0000
iter: 182  19:51:57  -7.06           -2.868165    29              +0.0000
iter: 183  19:51:57  -6.97           -2.868165    29              +0.0000
iter: 184  19:51:58  -7.06           -2.868165    29              +0.0000
iter: 185  19:51:59  -6.97           -2.868165    29              +0.0000
iter: 186  19:51:59  -7.04           -2.868165    29              +0.0000
iter: 187  19:52:00  -6.97           -2.868165    29              +0.0000
iter: 188  19:52:01  -7.05           -2.868165    29              +0.0000
iter: 189  19:52:01  -6.97           -2.868165    29              +0.0000
iter: 190  19:52:02  -7.02           -2.868165    29              +0.0000
iter: 191  19:52:03  -6.97           -2.868165    29              +0.0000
iter: 192  19:52:03  -7.06           -2.868165    29              +0.0000
iter: 193  19:52:04  -6.97           -2.868165    29              +0.0000
iter: 194  19:52:05  -7.06           -2.868165    29              +0.0000
iter: 195  19:52:05  -6.98           -2.868165    29              +0.0000
iter: 196  19:52:06  -7.05           -2.868165    29              +0.0000
iter: 197  19:52:07  -6.98           -2.868165    29              +0.0000
iter: 198  19:52:07  -7.06           -2.868165    29              +0.0000
iter: 199  19:52:08  -6.97           -2.868165    29              +0.0000
iter: 200  19:52:09  -7.05           -2.868165    29              +0.0000
iter: 201  19:52:09  -6.98           -2.868165    29              +0.0000
iter: 202  19:52:10  -7.06           -2.868165    29              +0.0000
iter: 203  19:52:11  -6.98           -2.868165    29              +0.0000
iter: 204  19:52:11  -7.06           -2.868165    29              +0.0000
iter: 205  19:52:12  -6.96           -2.868165    29              +0.0000
iter: 206  19:52:13  -7.06           -2.868165    29              +0.0000
iter: 207  19:52:14  -6.98           -2.868165    29              +0.0000
iter: 208  19:52:14  -7.06           -2.868165    29              +0.0000
iter: 209  19:52:15  -6.98           -2.868165    29              +0.0000
iter: 210  19:52:16  -7.06           -2.868165    29              +0.0000
iter: 211  19:52:16  -6.98           -2.868165    29              +0.0000
iter: 212  19:52:17  -7.06           -2.868165    29              +0.0000
iter: 213  19:52:18  -6.98           -2.868165    29              +0.0000
iter: 214  19:52:18  -7.06           -2.868165    29              +0.0000
iter: 215  19:52:19  -6.98           -2.868165    29              +0.0000
iter: 216  19:52:20  -7.06           -2.868165    29              +0.0000
iter: 217  19:52:20  -6.98           -2.868165    29              +0.0000
iter: 218  19:52:21  -7.06           -2.868165    29              +0.0000
iter: 219  19:52:22  -6.98           -2.868165    29              +0.0000
iter: 220  19:52:22  -7.06           -2.868165    29              +0.0000
iter: 221  19:52:23  -6.98           -2.868165    29              +0.0000
iter: 222  19:52:24  -7.06           -2.868165    29              +0.0000
iter: 223  19:52:24  -6.98           -2.868165    29              +0.0000
iter: 224  19:52:25  -7.06           -2.868165    29              +0.0000
iter: 225  19:52:26  -6.98           -2.868165    29              +0.0000
iter: 226  19:52:26  -7.06           -2.868165    29              +0.0000
iter: 227  19:52:27  -6.99           -2.868165    29              +0.0000
iter: 228  19:52:28  -7.06           -2.868165    29              +0.0000
iter: 229  19:52:28  -6.99           -2.868165    29              +0.0000
iter: 230  19:52:29  -7.06           -2.868165    29              +0.0000
iter: 231  19:52:30  -6.99           -2.868165    29              +0.0000
iter: 232  19:52:30  -7.06           -2.868165    29              +0.0000
iter: 233  19:52:31  -6.99           -2.868165    29              +0.0000
iter: 234  19:52:32  -7.06           -2.868165    29              +0.0000
iter: 235  19:52:32  -6.99           -2.868165    29              +0.0000
iter: 236  19:52:33  -7.06           -2.868165    29              +0.0000
iter: 237  19:52:34  -6.99           -2.868165    29              +0.0000
iter: 238  19:52:34  -7.06           -2.868165    29              +0.0000
iter: 239  19:52:35  -6.99           -2.868165    29              +0.0000
iter: 240  19:52:36  -7.06           -2.868165    29              +0.0000
iter: 241  19:52:36  -6.99           -2.868165    29              +0.0000
iter: 242  19:52:37  -7.06           -2.868165    29              +0.0000
iter: 243  19:52:38  -6.99           -2.868165    29              +0.0000
iter: 244  19:52:38  -7.06           -2.868165    29              +0.0000
iter: 245  19:52:39  -6.99           -2.868165    29              +0.0000
iter: 246  19:52:40  -7.06           -2.868165    29              +0.0000
iter: 247  19:52:40  -6.99           -2.868165    29              +0.0000
iter: 248  19:52:41  -7.07           -2.868165    29              +0.0000
iter: 249  19:52:42  -6.99           -2.868165    29              +0.0000
iter: 250  19:52:42  -7.07           -2.868165    29              +0.0000
iter: 251  19:52:43  -6.99           -2.868165    29              +0.0000
iter: 252  19:52:44  -7.07           -2.868165    29              +0.0000
iter: 253  19:52:44  -6.99           -2.868165    29              +0.0000
iter: 254  19:52:45  -7.07           -2.868165    29              +0.0000
iter: 255  19:52:46  -6.99           -2.868165    29              +0.0000
iter: 256  19:52:46  -7.07           -2.868165    29              +0.0000
iter: 257  19:52:47  -7.00           -2.868165    29              +0.0000
iter: 258  19:52:48  -7.07           -2.868165    29              +0.0000
iter: 259  19:52:48  -7.00           -2.868165    29              +0.0000
iter: 260  19:52:49  -7.07           -2.868165    29              +0.0000
iter: 261  19:52:50  -7.00           -2.868165    29              +0.0000
iter: 262  19:52:50  -7.07           -2.868165    29              +0.0000
iter: 263  19:52:51  -7.00           -2.868165    29              +0.0000
iter: 264  19:52:52  -7.07           -2.868165    29              +0.0000
iter: 265  19:52:52  -7.00           -2.868165    29              +0.0000
iter: 266  19:52:53  -7.07           -2.868165    29              +0.0000
iter: 267  19:52:54  -7.00           -2.868165    29              +0.0000
iter: 268  19:52:54  -7.07           -2.868165    29              +0.0000
iter: 269  19:52:55  -7.00           -2.868165    29              +0.0000
iter: 270  19:52:56  -7.07           -2.868165    29              +0.0000
iter: 271  19:52:56  -7.00           -2.868165    29              +0.0000
iter: 272  19:52:57  -7.07           -2.868165    29              +0.0000
iter: 273  19:52:58  -7.00           -2.868165    29              +0.0000
iter: 274  19:52:58  -7.07           -2.868165    29              +0.0000
iter: 275  19:52:59  -7.00           -2.868165    29              +0.0000
iter: 276  19:53:00  -7.07           -2.868165    29              +0.0000
iter: 277  19:53:00  -7.00           -2.868165    29              +0.0000
iter: 278  19:53:01  -7.07           -2.868165    29              +0.0000
iter: 279  19:53:02  -7.00           -2.868165    29              +0.0000
iter: 280  19:53:03  -7.07           -2.868165    29              +0.0000
iter: 281  19:53:03  -7.01           -2.868165    29              +0.0000
iter: 282  19:53:04  -7.07           -2.868165    29              +0.0000
iter: 283  19:53:05  -7.01           -2.868165    29              +0.0000
iter: 284  19:53:05  -7.08           -2.868165    29              +0.0000
iter: 285  19:53:06  -7.01           -2.868165    29              +0.0000
iter: 286  19:53:07  -7.08           -2.868165    29              +0.0000
iter: 287  19:53:07  -7.01           -2.868165    29              +0.0000
iter: 288  19:53:08  -7.08           -2.868165    29              +0.0000
iter: 289  19:53:09  -7.01           -2.868165    29              +0.0000
iter: 290  19:53:09  -7.08           -2.868165    29              +0.0000
iter: 291  19:53:10  -7.01           -2.868165    29              +0.0000
iter: 292  19:53:11  -7.08           -2.868165    29              +0.0000
iter: 293  19:53:11  -7.01           -2.868165    29              +0.0000
iter: 294  19:53:12  -7.08           -2.868165    29              +0.0000
iter: 295  19:53:13  -7.01           -2.868165    29              +0.0000
iter: 296  19:53:13  -7.08           -2.868165    29              +0.0000
iter: 297  19:53:14  -7.01           -2.868165    29              +0.0000
iter: 298  19:53:15  -7.08           -2.868165    29              +0.0000
iter: 299  19:53:15  -7.01           -2.868165    29              +0.0000
iter: 300  19:53:16  -7.08           -2.868165    29              +0.0000
iter: 301  19:53:17  -7.01           -2.868165    29              +0.0000
iter: 302  19:53:17  -7.08           -2.868165    29              +0.0000
iter: 303  19:53:18  -7.02           -2.868165    29              +0.0000
iter: 304  19:53:19  -7.08           -2.868165    29              +0.0000
iter: 305  19:53:19  -7.02           -2.868165    29              +0.0000
iter: 306  19:53:20  -7.08           -2.868165    29              +0.0000
iter: 307  19:53:21  -7.02           -2.868165    29              +0.0000
iter: 308  19:53:21  -7.08           -2.868165    29              +0.0000
iter: 309  19:53:22  -7.02           -2.868165    29              +0.0000
iter: 310  19:53:23  -7.08           -2.868165    29              +0.0000
iter: 311  19:53:23  -7.02           -2.868165    29              +0.0000
iter: 312  19:53:24  -7.09           -2.868165    29              +0.0000
iter: 313  19:53:25  -7.02           -2.868165    29              +0.0000
iter: 314  19:53:25  -7.09           -2.868165    29              +0.0000
iter: 315  19:53:26  -7.02           -2.868165    29              +0.0000
iter: 316  19:53:27  -7.09           -2.868165    29              +0.0000
iter: 317  19:53:27  -7.02           -2.868165    29              +0.0000
iter: 318  19:53:28  -7.09           -2.868165    29              +0.0000
iter: 319  19:53:29  -7.02           -2.868165    29              +0.0000
iter: 320  19:53:30  -7.09           -2.868165    29              +0.0000
iter: 321  19:53:30  -7.02           -2.868165    29              +0.0000
iter: 322  19:53:31  -7.09           -2.868165    29              +0.0000
iter: 323  19:53:32  -7.03           -2.868165    29              +0.0000
iter: 324  19:53:32  -7.09           -2.868165    29              +0.0000
iter: 325  19:53:33  -7.03           -2.868165    29              +0.0000
iter: 326  19:53:34  -7.09           -2.868165    29              +0.0000
iter: 327  19:53:34  -7.03           -2.868165    29              +0.0000
iter: 328  19:53:35  -7.09           -2.868165    29              +0.0000
iter: 329  19:53:36  -7.03           -2.868165    29              +0.0000
iter: 330  19:53:36  -7.09           -2.868165    29              +0.0000
iter: 331  19:53:37  -7.03           -2.868165    29              +0.0000
iter: 332  19:53:38  -7.09           -2.868165    29              +0.0000
iter: 333  19:53:38  -7.03           -2.868165    29              +0.0000
iter: 334  19:53:39  -7.09           -2.868165    29              +0.0000
iter: 335  19:53:40  -7.03           -2.868165    29              +0.0000
iter: 336  19:53:40  -7.10           -2.868165    29              +0.0000
iter: 337  19:53:41  -7.03           -2.868165    29              +0.0000
iter: 338  19:53:42  -7.10           -2.868165    29              +0.0000
iter: 339  19:53:42  -7.03           -2.868165    29              +0.0000
iter: 340  19:53:43  -7.10           -2.868165    29              +0.0000
iter: 341  19:53:44  -7.04           -2.868165    29              +0.0000
iter: 342  19:53:44  -7.10           -2.868165    29              +0.0000
iter: 343  19:53:45  -7.04           -2.868165    29              +0.0000
iter: 344  19:53:46  -7.10           -2.868165    29              +0.0000
iter: 345  19:53:46  -7.04           -2.868165    29              +0.0000
iter: 346  19:53:47  -7.10           -2.868165    29              +0.0000
iter: 347  19:53:48  -7.04           -2.868165    29              +0.0000
iter: 348  19:53:48  -7.10           -2.868165    29              +0.0000
iter: 349  19:53:49  -7.04           -2.868165    29              +0.0000
iter: 350  19:53:50  -7.10           -2.868165    29              +0.0000
iter: 351  19:53:50  -7.04           -2.868165    29              +0.0000
iter: 352  19:53:51  -7.10           -2.868165    29              +0.0000
iter: 353  19:53:52  -7.04           -2.868165    29              +0.0000
iter: 354  19:53:52  -7.10           -2.868165    29              +0.0000
iter: 355  19:53:53  -7.04           -2.868165    29              +0.0000
iter: 356  19:53:54  -7.10           -2.868165    29              +0.0000
iter: 357  19:53:54  -7.05           -2.868165    29              +0.0000
iter: 358  19:53:55  -7.11           -2.868165    29              +0.0000
iter: 359  19:53:56  -7.05           -2.868165    29              +0.0000
iter: 360  19:53:56  -7.11           -2.868165    29              +0.0000
iter: 361  19:53:57  -7.05           -2.868165    29              +0.0000
iter: 362  19:53:58  -7.11           -2.868165    29              +0.0000
iter: 363  19:53:58  -7.05           -2.868165    29              +0.0000
iter: 364  19:53:59  -7.11           -2.868165    29              +0.0000
iter: 365  19:54:00  -7.05           -2.868165    29              +0.0000
iter: 366  19:54:00  -7.11           -2.868165    29              +0.0000
iter: 367  19:54:01  -7.05           -2.868165    29              +0.0000
iter: 368  19:54:02  -7.11           -2.868165    29              +0.0000
iter: 369  19:54:02  -7.05           -2.868165    29              +0.0000
iter: 370  19:54:03  -7.11           -2.868165    29              +0.0000
iter: 371  19:54:04  -7.05           -2.868165    29              +0.0000
iter: 372  19:54:05  -7.11           -2.868165    29              +0.0000
iter: 373  19:54:05  -7.06           -2.868165    29              +0.0000
iter: 374  19:54:06  -7.12           -2.868165    29              +0.0000
iter: 375  19:54:07  -7.06           -2.868165    29              +0.0000
iter: 376  19:54:07  -7.12           -2.868165    29              +0.0000
iter: 377  19:54:08  -7.06           -2.868165    29              +0.0000
iter: 378  19:54:09  -7.12           -2.868165    29              +0.0000
iter: 379  19:54:09  -7.06           -2.868165    29              +0.0000
iter: 380  19:54:10  -7.12           -2.868165    29              +0.0000
iter: 381  19:54:11  -7.06           -2.868165    29              +0.0000
iter: 382  19:54:11  -7.12           -2.868165    29              +0.0000
iter: 383  19:54:12  -7.06           -2.868165    29              +0.0000
iter: 384  19:54:13  -7.12           -2.868165    29              +0.0000
iter: 385  19:54:13  -7.04           -2.868165    29              +0.0000
iter: 386  19:54:14  -7.13           -2.868165    29              +0.0000
iter: 387  19:54:15  -7.07           -2.868165    29              +0.0000
iter: 388  19:54:15  -7.13           -2.868165    29              +0.0000
iter: 389  19:54:16  -7.07           -2.868165    29              +0.0000
iter: 390  19:54:17  -7.13           -2.868165    29              +0.0000
iter: 391  19:54:17  -7.07           -2.868165    29              +0.0000
iter: 392  19:54:18  -7.13           -2.868165    29              +0.0000
iter: 393  19:54:19  -7.07           -2.868165    29              +0.0000
iter: 394  19:54:19  -7.13           -2.868165    29              +0.0000
iter: 395  19:54:20  -7.07           -2.868165    29              +0.0000
iter: 396  19:54:21  -7.13           -2.868165    29              +0.0000
iter: 397  19:54:21  -7.07           -2.868165    29              +0.0000
iter: 398  19:54:22  -7.13           -2.868165    29              +0.0000
iter: 399  19:54:23  -7.07           -2.868165    29              +0.0000
iter: 400  19:54:23  -7.13           -2.868165    29              +0.0000
iter: 401  19:54:24  -7.08           -2.868165    29              +0.0000
iter: 402  19:54:25  -7.13           -2.868165    29              +0.0000
iter: 403  19:54:25  -7.08           -2.868165    29              +0.0000
iter: 404  19:54:26  -7.14           -2.868165    29              +0.0000
iter: 405  19:54:27  -7.08           -2.868165    29              +0.0000
iter: 406  19:54:27  -7.14           -2.868165    29              +0.0000
iter: 407  19:54:28  -7.08           -2.868165    29              +0.0000
iter: 408  19:54:29  -7.14           -2.868165    29              +0.0000
iter: 409  19:54:29  -7.08           -2.868165    29              +0.0000
iter: 410  19:54:30  -7.14           -2.868165    29              +0.0000
iter: 411  19:54:31  -7.08           -2.868165    29              +0.0000
iter: 412  19:54:31  -7.14           -2.868165    29              +0.0000
iter: 413  19:54:32  -7.08           -2.868165    29              +0.0000
iter: 414  19:54:33  -7.14           -2.868165    29              +0.0000
iter: 415  19:54:33  -7.09           -2.868165    29              +0.0000
iter: 416  19:54:34  -7.14           -2.868165    29              +0.0000
iter: 417  19:54:35  -7.09           -2.868165    29              +0.0000
iter: 418  19:54:35  -7.14           -2.868165    29              +0.0000
iter: 419  19:54:36  -7.09           -2.868165    29              +0.0000
iter: 420  19:54:37  -7.14           -2.868165    29              +0.0000
iter: 421  19:54:37  -7.09           -2.868165    29              +0.0000
iter: 422  19:54:38  -7.14           -2.868165    29              +0.0000
iter: 423  19:54:39  -7.09           -2.868165    29              +0.0000
iter: 424  19:54:39  -7.14           -2.868165    29              +0.0000
iter: 425  19:54:40  -7.09           -2.868165    29              +0.0000
iter: 426  19:54:41  -7.15           -2.868165    29              +0.0000
iter: 427  19:54:41  -7.09           -2.868165    29              +0.0000
iter: 428  19:54:42  -7.15           -2.868165    29              +0.0000
iter: 429  19:54:43  -7.09           -2.868165    29              +0.0000
iter: 430  19:54:43  -7.15           -2.868165    29              +0.0000
iter: 431  19:54:44  -7.10           -2.868165    29              +0.0000
iter: 432  19:54:45  -7.15           -2.868165    29              +0.0000
iter: 433  19:54:46  -7.10           -2.868165    29              +0.0000
iter: 434  19:54:46  -7.15           -2.868165    29              +0.0000
iter: 435  19:54:47  -7.10           -2.868165    29              +0.0000
iter: 436  19:54:48  -7.15           -2.868165    29              +0.0000
iter: 437  19:54:48  -7.10           -2.868165    29              +0.0000
iter: 438  19:54:49  -7.15           -2.868165    29              +0.0000
iter: 439  19:54:50  -7.10           -2.868165    29              +0.0000
iter: 440  19:54:50  -7.15           -2.868165    29              +0.0000
iter: 441  19:54:51  -7.10           -2.868165    29              +0.0000
iter: 442  19:54:52  -7.16           -2.868165    29              +0.0000
iter: 443  19:54:52  -7.10           -2.868165    29              +0.0000
iter: 444  19:54:53  -7.16           -2.868165    29              +0.0000
iter: 445  19:54:54  -7.11           -2.868165    29              +0.0000
iter: 446  19:54:54  -7.16           -2.868165    29              +0.0000
iter: 447  19:54:55  -7.11           -2.868165    29              +0.0000
iter: 448  19:54:56  -7.16           -2.868165    29              +0.0000
iter: 449  19:54:56  -7.11           -2.868165    29              +0.0000
iter: 450  19:54:57  -7.16           -2.868165    29              +0.0000
iter: 451  19:54:58  -7.11           -2.868165    29              +0.0000
iter: 452  19:54:58  -7.16           -2.868165    29              +0.0000
iter: 453  19:54:59  -7.11           -2.868165    29              +0.0000
iter: 454  19:55:00  -7.16           -2.868165    29              +0.0000
iter: 455  19:55:00  -7.11           -2.868165    29              +0.0000
iter: 456  19:55:01  -7.16           -2.868165    29              +0.0000
iter: 457  19:55:02  -7.11           -2.868165    29              +0.0000
iter: 458  19:55:02  -7.16           -2.868165    29              +0.0000
iter: 459  19:55:03  -7.12           -2.868165    29              +0.0000
iter: 460  19:55:04  -7.17           -2.868165    29              +0.0000
iter: 461  19:55:05  -7.12           -2.868165    29              +0.0000
iter: 462  19:55:05  -7.17           -2.868165    29              +0.0000
iter: 463  19:55:06  -7.12           -2.868165    29              +0.0000
iter: 464  19:55:07  -7.17           -2.868165    29              +0.0000
iter: 465  19:55:08  -7.12           -2.868165    29              +0.0000
iter: 466  19:55:09  -7.17           -2.868165    29              +0.0000
iter: 467  19:55:09  -7.12           -2.868165    29              +0.0000
iter: 468  19:55:10  -7.17           -2.868165    29              +0.0000
iter: 469  19:55:11  -7.12           -2.868165    29              +0.0000
iter: 470  19:55:12  -7.17           -2.868165    29              +0.0000
iter: 471  19:55:12  -7.12           -2.868165    29              +0.0000
iter: 472  19:55:13  -7.17           -2.868165    29              +0.0000
iter: 473  19:55:14  -7.13           -2.868165    29              +0.0000
iter: 474  19:55:15  -7.18           -2.868165    29              +0.0000
iter: 475  19:55:15  -7.13           -2.868165    29              +0.0000
iter: 476  19:55:16  -7.18           -2.868165    29              +0.0000
iter: 477  19:55:17  -7.13           -2.868165    29              +0.0000
iter: 478  19:55:17  -7.18           -2.868165    29              +0.0000
iter: 479  19:55:18  -7.13           -2.868165    29              +0.0000
iter: 480  19:55:19  -7.18           -2.868165    29              +0.0000
iter: 481  19:55:19  -7.13           -2.868165    29              +0.0000
iter: 482  19:55:20  -7.18           -2.868165    29              +0.0000
iter: 483  19:55:21  -7.13           -2.868165    29              +0.0000
iter: 484  19:55:21  -7.18           -2.868165    29              +0.0000
iter: 485  19:55:22  -7.13           -2.868165    29              +0.0000
iter: 486  19:55:23  -7.18           -2.868165    29              +0.0000
iter: 487  19:55:23  -7.14           -2.868165    29              +0.0000
iter: 488  19:55:24  -7.18           -2.868165    29              +0.0000
iter: 489  19:55:25  -7.14           -2.868165    29              +0.0000
iter: 490  19:55:25  -7.19           -2.868165    29              +0.0000
iter: 491  19:55:26  -7.14           -2.868165    29              +0.0000
iter: 492  19:55:27  -7.19           -2.868165    29              +0.0000
iter: 493  19:55:27  -7.14           -2.868165    29              +0.0000
iter: 494  19:55:28  -7.19           -2.868165    29              +0.0000
iter: 495  19:55:29  -7.14           -2.868165    29              +0.0000
iter: 496  19:55:29  -7.19           -2.868165    29              +0.0000
iter: 497  19:55:30  -7.14           -2.868165    29              +0.0000
iter: 498  19:55:31  -7.19           -2.868165    29              +0.0000
iter: 499  19:55:31  -7.15           -2.868165    29              +0.0000
iter: 500  19:55:32  -7.19           -2.868165    29              +0.0000
iter: 501  19:55:33  -7.15           -2.868165    29              +0.0000
iter: 502  19:55:33  -7.19           -2.868165    29              +0.0000
iter: 503  19:55:34  -7.15           -2.868165    29              +0.0000
iter: 504  19:55:35  -7.19           -2.868165    29              +0.0000
iter: 505  19:55:35  -7.15           -2.868165    29              +0.0000
iter: 506  19:55:36  -7.20           -2.868165    29              +0.0000
iter: 507  19:55:37  -7.15           -2.868165    29              +0.0000
iter: 508  19:55:37  -7.20           -2.868165    29              +0.0000
iter: 509  19:55:38  -7.15           -2.868165    29              +0.0000
iter: 510  19:55:39  -7.20           -2.868165    29              +0.0000
iter: 511  19:55:39  -7.15           -2.868165    29              +0.0000
iter: 512  19:55:40  -7.20           -2.868165    29              +0.0000
iter: 513  19:55:41  -7.16           -2.868165    29              +0.0000
iter: 514  19:55:41  -7.20           -2.868165    29              +0.0000
iter: 515  19:55:42  -7.16           -2.868165    29              +0.0000
iter: 516  19:55:43  -7.20           -2.868165    29              +0.0000
iter: 517  19:55:43  -7.16           -2.868165    29              +0.0000
iter: 518  19:55:44  -7.20           -2.868165    29              +0.0000
iter: 519  19:55:45  -7.16           -2.868165    29              +0.0000
iter: 520  19:55:45  -7.21           -2.868165    29              +0.0000
iter: 521  19:55:46  -7.16           -2.868165    29              +0.0000
iter: 522  19:55:47  -7.21           -2.868165    29              +0.0000
iter: 523  19:55:47  -7.16           -2.868165    29              +0.0000
iter: 524  19:55:48  -7.21           -2.868165    29              +0.0000
iter: 525  19:55:49  -7.16           -2.868165    29              +0.0000
iter: 526  19:55:49  -7.21           -2.868165    29              +0.0000
iter: 527  19:55:50  -7.17           -2.868165    29              +0.0000
iter: 528  19:55:51  -7.21           -2.868165    29              +0.0000
iter: 529  19:55:52  -7.17           -2.868165    29              +0.0000
iter: 530  19:55:52  -7.21           -2.868165    29              +0.0000
iter: 531  19:55:53  -7.17           -2.868165    29              +0.0000
iter: 532  19:55:54  -7.21           -2.868165    29              +0.0000
iter: 533  19:55:54  -7.17           -2.868165    29              +0.0000
iter: 534  19:55:55  -7.22           -2.868165    29              +0.0000
iter: 535  19:55:56  -7.17           -2.868165    29              +0.0000
iter: 536  19:55:56  -7.22           -2.868165    29              +0.0000
iter: 537  19:55:57  -7.17           -2.868165    29              +0.0000
iter: 538  19:55:58  -7.22           -2.868165    29              +0.0000
iter: 539  19:55:58  -7.18           -2.868165    29              +0.0000
iter: 540  19:55:59  -7.22           -2.868165    29              +0.0000
iter: 541  19:56:00  -7.18           -2.868165    29              +0.0000
iter: 542  19:56:00  -7.22           -2.868165    29              +0.0000
iter: 543  19:56:01  -7.18           -2.868165    29              +0.0000
iter: 544  19:56:02  -7.22           -2.868165    29              +0.0000
iter: 545  19:56:02  -7.18           -2.868165    29              +0.0000
iter: 546  19:56:03  -7.22           -2.868165    29              +0.0000
iter: 547  19:56:04  -7.18           -2.868165    29              +0.0000
iter: 548  19:56:04  -7.23           -2.868165    29              +0.0000
iter: 549  19:56:05  -7.18           -2.868165    29              +0.0000
iter: 550  19:56:06  -7.23           -2.868165    29              +0.0000
iter: 551  19:56:06  -7.18           -2.868165    29              +0.0000
iter: 552  19:56:07  -7.23           -2.868165    29              +0.0000
iter: 553  19:56:08  -7.19           -2.868165    29              +0.0000
iter: 554  19:56:09  -7.23           -2.868165    29              +0.0000
iter: 555  19:56:09  -7.19           -2.868165    29              +0.0000
iter: 556  19:56:10  -7.23           -2.868165    29              +0.0000
iter: 557  19:56:11  -7.19           -2.868165    29              +0.0000
iter: 558  19:56:11  -7.23           -2.868165    29              +0.0000
iter: 559  19:56:12  -7.19           -2.868165    29              +0.0000
iter: 560  19:56:13  -7.23           -2.868165    29              +0.0000
iter: 561  19:56:13  -7.19           -2.868165    29              +0.0000
iter: 562  19:56:14  -7.24           -2.868165    29              +0.0000
iter: 563  19:56:15  -7.19           -2.868165    29              +0.0000
iter: 564  19:56:15  -7.24           -2.868165    29              +0.0000
iter: 565  19:56:16  -7.20           -2.868165    29              +0.0000
iter: 566  19:56:17  -7.24           -2.868165    29              +0.0000
iter: 567  19:56:17  -7.20           -2.868165    29              +0.0000
iter: 568  19:56:18  -7.24           -2.868165    29              +0.0000
iter: 569  19:56:19  -7.20           -2.868165    29              +0.0000
iter: 570  19:56:19  -7.24           -2.868165    29              +0.0000
iter: 571  19:56:20  -7.20           -2.868165    29              +0.0000
iter: 572  19:56:21  -7.24           -2.868165    29              +0.0000
iter: 573  19:56:21  -7.20           -2.868165    29              +0.0000
iter: 574  19:56:22  -7.24           -2.868165    29              +0.0000
iter: 575  19:56:23  -7.20           -2.868165    29              +0.0000
iter: 576  19:56:23  -7.25           -2.868165    29              +0.0000
iter: 577  19:56:24  -7.20           -2.868165    29              +0.0000
iter: 578  19:56:25  -7.25           -2.868165    29              +0.0000
iter: 579  19:56:25  -7.21           -2.868165    29              +0.0000
iter: 580  19:56:26  -7.25           -2.868165    29              +0.0000
iter: 581  19:56:27  -7.21           -2.868165    29              +0.0000
iter: 582  19:56:27  -7.25           -2.868165    29              +0.0000
iter: 583  19:56:28  -7.21           -2.868165    29              +0.0000
iter: 584  19:56:29  -7.25           -2.868165    29              +0.0000
iter: 585  19:56:29  -7.21           -2.868165    29              +0.0000
iter: 586  19:56:30  -7.25           -2.868165    29              +0.0000
iter: 587  19:56:31  -7.21           -2.868165    29              +0.0000
iter: 588  19:56:31  -7.25           -2.868165    29              +0.0000
iter: 589  19:56:32  -7.21           -2.868165    29              +0.0000
iter: 590  19:56:33  -7.26           -2.868165    29              +0.0000
iter: 591  19:56:33  -7.22           -2.868165    29              +0.0000
iter: 592  19:56:34  -7.26           -2.868165    29              +0.0000
iter: 593  19:56:35  -7.22           -2.868165    29              +0.0000
iter: 594  19:56:35  -7.26           -2.868165    29              +0.0000
iter: 595  19:56:36  -7.22           -2.868165    29              +0.0000
iter: 596  19:56:37  -7.26           -2.868165    29              +0.0000
iter: 597  19:56:37  -7.22           -2.868165    29              +0.0000
iter: 598  19:56:38  -7.26           -2.868165    29              +0.0000
iter: 599  19:56:39  -7.22           -2.868165    29              +0.0000
iter: 600  19:56:39  -7.26           -2.868165    29              +0.0000
iter: 601  19:56:40  -7.22           -2.868165    29              +0.0000
iter: 602  19:56:41  -7.26           -2.868165    29              +0.0000
iter: 603  19:56:41  -7.22           -2.868165    29              +0.0000
iter: 604  19:56:42  -7.27           -2.868165    29              +0.0000
iter: 605  19:56:43  -7.23           -2.868165    29              +0.0000
iter: 606  19:56:43  -7.27           -2.868165    29              +0.0000
iter: 607  19:56:44  -7.23           -2.868165    29              +0.0000
iter: 608  19:56:45  -7.27           -2.868165    29              +0.0000
iter: 609  19:56:45  -7.23           -2.868165    29              +0.0000
iter: 610  19:56:46  -7.27           -2.868165    29              +0.0000
iter: 611  19:56:47  -7.23           -2.868165    29              +0.0000
iter: 612  19:56:47  -7.27           -2.868165    29              +0.0000
iter: 613  19:56:48  -7.23           -2.868165    29              +0.0000
iter: 614  19:56:49  -7.27           -2.868165    29              +0.0000
iter: 615  19:56:49  -7.23           -2.868165    29              +0.0000
iter: 616  19:56:50  -7.27           -2.868165    29              +0.0000
iter: 617  19:56:51  -7.24           -2.868165    29              +0.0000
iter: 618  19:56:51  -7.28           -2.868165    29              +0.0000
iter: 619  19:56:52  -7.24           -2.868165    29              +0.0000
iter: 620  19:56:53  -7.28           -2.868165    29              +0.0000
iter: 621  19:56:54  -7.24           -2.868165    29              +0.0000
iter: 622  19:56:54  -7.28           -2.868165    29              +0.0000
iter: 623  19:56:55  -7.24           -2.868165    29              +0.0000
iter: 624  19:56:56  -7.28           -2.868165    29              +0.0000
iter: 625  19:56:56  -7.24           -2.868165    29              +0.0000
iter: 626  19:56:57  -7.28           -2.868165    29              +0.0000
iter: 627  19:56:58  -7.24           -2.868165    29              +0.0000
iter: 628  19:56:58  -7.28           -2.868165    29              +0.0000
iter: 629  19:56:59  -7.24           -2.868165    29              +0.0000
iter: 630  19:57:00  -7.29           -2.868165    29              +0.0000
iter: 631  19:57:00  -7.25           -2.868165    29              +0.0000
iter: 632  19:57:01  -7.29           -2.868165    29              +0.0000
iter: 633  19:57:02  -7.25           -2.868165    29              +0.0000
iter: 634  19:57:02  -7.29           -2.868165    29              +0.0000
iter: 635  19:57:03  -7.25           -2.868165    29              +0.0000
iter: 636  19:57:04  -7.29           -2.868165    29              +0.0000
iter: 637  19:57:04  -7.25           -2.868165    29              +0.0000
iter: 638  19:57:05  -7.29           -2.868165    29              +0.0000
iter: 639  19:57:06  -7.25           -2.868165    29              +0.0000
iter: 640  19:57:06  -7.29           -2.868165    29              +0.0000
iter: 641  19:57:07  -7.25           -2.868165    29              +0.0000
iter: 642  19:57:08  -7.29           -2.868165    29              +0.0000
iter: 643  19:57:08  -7.26           -2.868165    29              +0.0000
iter: 644  19:57:09  -7.30           -2.868165    29              +0.0000
iter: 645  19:57:10  -7.26           -2.868165    29              +0.0000
iter: 646  19:57:10  -7.30           -2.868165    29              +0.0000
iter: 647  19:57:11  -7.26           -2.868165    29              +0.0000
iter: 648  19:57:12  -7.30           -2.868165    29              +0.0000
iter: 649  19:57:12  -7.26           -2.868165    29              +0.0000
iter: 650  19:57:13  -7.30           -2.868165    29              +0.0000
iter: 651  19:57:14  -7.26           -2.868165    29              +0.0000
iter: 652  19:57:14  -7.30           -2.868165    29              +0.0000
iter: 653  19:57:15  -7.26           -2.868165    29              +0.0000
iter: 654  19:57:16  -7.30           -2.868165    29              +0.0000
iter: 655  19:57:16  -7.26           -2.868165    29              +0.0000
iter: 656  19:57:17  -7.31           -2.868165    29              +0.0000
iter: 657  19:57:18  -7.27           -2.868165    29              +0.0000
iter: 658  19:57:18  -7.31           -2.868165    29              +0.0000
iter: 659  19:57:19  -7.27           -2.868165    29              +0.0000
iter: 660  19:57:20  -7.31           -2.868165    29              +0.0000
iter: 661  19:57:20  -7.27           -2.868165    29              +0.0000
iter: 662  19:57:21  -7.31           -2.868165    29              +0.0000
iter: 663  19:57:22  -7.27           -2.868165    29              +0.0000
iter: 664  19:57:22  -7.31           -2.868165    29              +0.0000
iter: 665  19:57:23  -7.27           -2.868165    29              +0.0000
iter: 666  19:57:24  -7.31           -2.868165    29              +0.0000
iter: 667  19:57:24  -7.27           -2.868165    29              +0.0000
iter: 668  19:57:25  -7.31           -2.868165    29              +0.0000
iter: 669  19:57:26  -7.28           -2.868165    29              +0.0000
iter: 670  19:57:26  -7.32           -2.868165    29              +0.0000
iter: 671  19:57:27  -7.28           -2.868165    29              +0.0000
iter: 672  19:57:28  -7.32           -2.868165    29              +0.0000
iter: 673  19:57:28  -7.28           -2.868165    29              +0.0000
iter: 674  19:57:29  -7.32           -2.868165    29              +0.0000
iter: 675  19:57:30  -7.28           -2.868165    29              +0.0000
iter: 676  19:57:30  -7.32           -2.868165    29              +0.0000
iter: 677  19:57:31  -7.28           -2.868165    29              +0.0000
iter: 678  19:57:32  -7.32           -2.868165    29              +0.0000
iter: 679  19:57:32  -7.28           -2.868165    29              +0.0000
iter: 680  19:57:33  -7.32           -2.868165    29              +0.0000
iter: 681  19:57:34  -7.28           -2.868165    29              +0.0000
iter: 682  19:57:34  -7.32           -2.868165    29              +0.0000
iter: 683  19:57:35  -7.29           -2.868165    29              +0.0000
iter: 684  19:57:36  -7.33           -2.868165    29              +0.0000
iter: 685  19:57:36  -7.29           -2.868165    29              +0.0000
iter: 686  19:57:37  -7.33           -2.868165    29              +0.0000
iter: 687  19:57:38  -7.29           -2.868165    29              +0.0000
iter: 688  19:57:38  -7.33           -2.868165    29              +0.0000
iter: 689  19:57:39  -7.29           -2.868165    29              +0.0000
iter: 690  19:57:40  -7.33           -2.868165    29              +0.0000
iter: 691  19:57:40  -7.29           -2.868165    29              +0.0000
iter: 692  19:57:41  -7.33           -2.868165    29              +0.0000
iter: 693  19:57:42  -7.29           -2.868165    29              +0.0000
iter: 694  19:57:42  -7.33           -2.868165    29              +0.0000
iter: 695  19:57:43  -7.29           -2.868165    29              +0.0000
iter: 696  19:57:44  -7.34           -2.868165    29              +0.0000
iter: 697  19:57:45  -7.30           -2.868165    29              +0.0000
iter: 698  19:57:45  -7.34           -2.868165    29              +0.0000
iter: 699  19:57:46  -7.30           -2.868165    29              +0.0000
iter: 700  19:57:47  -7.34           -2.868165    29              +0.0000
iter: 701  19:57:47  -7.30           -2.868165    29              +0.0000
iter: 702  19:57:48  -7.34           -2.868165    29              +0.0000
iter: 703  19:57:49  -7.30           -2.868165    29              +0.0000
iter: 704  19:57:49  -7.34           -2.868165    29              +0.0000
iter: 705  19:57:50  -7.30           -2.868165    29              +0.0000
iter: 706  19:57:51  -7.34           -2.868165    29              +0.0000
iter: 707  19:57:51  -7.30           -2.868165    29              +0.0000
iter: 708  19:57:52  -7.34           -2.868165    29              +0.0000
iter: 709  19:57:53  -7.31           -2.868165    29              +0.0000
iter: 710  19:57:53  -7.35           -2.868165    29              +0.0000
iter: 711  19:57:54  -7.31           -2.868165    29              +0.0000
iter: 712  19:57:55  -7.35           -2.868165    29              +0.0000
iter: 713  19:57:55  -7.31           -2.868165    29              +0.0000
iter: 714  19:57:56  -7.35           -2.868165    29              +0.0000
iter: 715  19:57:57  -7.31           -2.868165    29              +0.0000
iter: 716  19:57:57  -7.35           -2.868165    29              +0.0000
iter: 717  19:57:58  -7.31           -2.868165    29              +0.0000
iter: 718  19:57:59  -7.35           -2.868165    29              +0.0000
iter: 719  19:57:59  -7.31           -2.868165    29              +0.0000
iter: 720  19:58:00  -7.35           -2.868165    29              +0.0000
iter: 721  19:58:01  -7.31           -2.868165    29              +0.0000
iter: 722  19:58:01  -7.36           -2.868165    29              +0.0000
iter: 723  19:58:02  -7.32           -2.868165    29              +0.0000
iter: 724  19:58:03  -7.36           -2.868165    29              +0.0000
iter: 725  19:58:03  -7.32           -2.868165    29              +0.0000
iter: 726  19:58:04  -7.36           -2.868165    29              +0.0000
iter: 727  19:58:05  -7.32           -2.868165    29              +0.0000
iter: 728  19:58:05  -7.36           -2.868165    29              +0.0000
iter: 729  19:58:06  -7.32           -2.868165    29              +0.0000
iter: 730  19:58:07  -7.36           -2.868165    29              +0.0000
iter: 731  19:58:07  -7.32           -2.868165    29              +0.0000
iter: 732  19:58:08  -7.36           -2.868165    29              +0.0000
iter: 733  19:58:09  -7.32           -2.868165    29              +0.0000
iter: 734  19:58:09  -7.37           -2.868165    29              +0.0000
iter: 735  19:58:10  -7.33           -2.868165    29              +0.0000
iter: 736  19:58:11  -7.37           -2.868165    29              +0.0000
iter: 737  19:58:11  -7.33           -2.868165    29              +0.0000
iter: 738  19:58:12  -7.37           -2.868165    29              +0.0000
iter: 739  19:58:13  -7.33           -2.868165    29              +0.0000
iter: 740  19:58:13  -7.37           -2.868165    29              +0.0000
iter: 741  19:58:14  -7.33           -2.868165    29              +0.0000
iter: 742  19:58:15  -7.37           -2.868165    29              +0.0000
iter: 743  19:58:15  -7.33           -2.868165    29              +0.0000
iter: 744  19:58:16  -7.37           -2.868165    29              +0.0000
iter: 745  19:58:17  -7.33           -2.868165    29              +0.0000
iter: 746  19:58:17  -7.37           -2.868165    29              +0.0000
iter: 747  19:58:18  -7.33           -2.868165    29              +0.0000
iter: 748  19:58:19  -7.38           -2.868165    29              +0.0000
iter: 749  19:58:19  -7.34           -2.868165    29              +0.0000
iter: 750  19:58:20  -7.38           -2.868165    29              +0.0000
iter: 751  19:58:21  -7.34           -2.868165    29              +0.0000
iter: 752  19:58:21  -7.38           -2.868165    29              +0.0000
iter: 753  19:58:22  -7.34           -2.868165    29              +0.0000
iter: 754  19:58:23  -7.38           -2.868165    29              +0.0000
iter: 755  19:58:23  -7.34           -2.868165    29              +0.0000
iter: 756  19:58:24  -7.38           -2.868165    29              +0.0000
iter: 757  19:58:25  -7.34           -2.868165    29              +0.0000
iter: 758  19:58:25  -7.38           -2.868165    29              +0.0000
iter: 759  19:58:26  -7.34           -2.868165    29              +0.0000
iter: 760  19:58:27  -7.39           -2.868165    29              +0.0000
iter: 761  19:58:27  -7.34           -2.868165    29              +0.0000
iter: 762  19:58:28  -7.39           -2.868165    29              +0.0000
iter: 763  19:58:29  -7.35           -2.868165    29              +0.0000
iter: 764  19:58:29  -7.39           -2.868165    29              +0.0000
iter: 765  19:58:30  -7.35           -2.868165    29              +0.0000
iter: 766  19:58:31  -7.39           -2.868165    29              +0.0000
iter: 767  19:58:31  -7.35           -2.868165    29              +0.0000
iter: 768  19:58:32  -7.39           -2.868165    29              +0.0000
iter: 769  19:58:33  -7.35           -2.868165    29              +0.0000
iter: 770  19:58:33  -7.39           -2.868165    29              +0.0000
iter: 771  19:58:34  -7.35           -2.868165    29              +0.0000
iter: 772  19:58:35  -7.39           -2.868165    29              +0.0000
iter: 773  19:58:35  -7.35           -2.868165    29              +0.0000
iter: 774  19:58:36  -7.40           -2.868165    29              +0.0000
iter: 775  19:58:37  -7.36           -2.868165    29              +0.0000
iter: 776  19:58:37  -7.40           -2.868165    29              +0.0000
iter: 777  19:58:38  -7.36           -2.868165    29              +0.0000
iter: 778  19:58:39  -7.40           -2.868165    29              +0.0000

Converged after 778 iterations.

Dipole moment: (0.000000, 0.000000, 0.000000) |e|*Ang

Total magnetic moment: 0.000002
Local magnetic moments:
   0 As 0.000111

Energy contributions relative to reference atoms: (reference = -61502.973600)

Kinetic:         +7.139739
Potential:       -5.569688
External:        +0.000000
XC:              -4.431097
Entropy (-ST):   -0.000538
Local:           -0.006850
--------------------------
Free energy:     -2.868434
Extrapolated:    -2.868165

Spin contamination: 0.000146 electrons
Fixed Fermi level: 7.91936

Warning: Showing only first 2 kpts
                      Up                     Down
 Kpt  Band  Eigenvalues  Occupancy  Eigenvalues  Occupancy
  0     0     -6.84644    0.02000     -6.84645    0.02000
  0     1     14.07004    0.00000     14.07018    0.00000
  0     2     14.07004    0.00000     14.07018    0.00000
  0     3     14.07034    0.00000     14.07048    0.00000

  1     0     -6.78312    0.02000     -6.78313    0.02000
  1     1     13.76317    0.00000     13.76329    0.00000
  1     2     13.88060    0.00000     13.88075    0.00000
  1     3     13.88071    0.00000     13.88086    0.00000


Timing:                              incl.     excl.
-----------------------------------------------------------
Hamiltonian:                         0.568     0.001   0.0% |
 Atomic:                             0.453     0.002   0.0% |
  XC Correction:                     0.451     0.451   0.1% |
 Calculate atomic Hamiltonians:      0.006     0.006   0.0% |
 Communicate:                        0.000     0.000   0.0% |
 Initialize Hamiltonian:             0.000     0.000   0.0% |
 Poisson:                            0.000     0.000   0.0% |
 XC 3D grid:                         0.108     0.108   0.0% |
LCAO initialization:                 1.723     0.044   0.0% |
 LCAO eigensolver:                   0.936     0.014   0.0% |
  Calculate projections:             0.004     0.004   0.0% |
  DenseAtomicCorrection:             0.025     0.025   0.0% |
  Distribute overlap matrix:         0.005     0.005   0.0% |
  Orbital Layouts:                   0.026     0.026   0.0% |
  Potential matrix:                  0.148     0.148   0.0% |
  Sum over cells:                    0.714     0.714   0.1% |
 LCAO to grid:                       0.385     0.385   0.1% |
 Set positions (LCAO WFS):           0.359     0.000   0.0% |
  Basic WFS set positions:           0.002     0.002   0.0% |
  Basis functions set positions:     0.000     0.000   0.0% |
  TCI: Calculate S, T, P:            0.356     0.356   0.1% |
PWDescriptor:                        0.016     0.016   0.0% |
Redistribute:                        0.000     0.000   0.0% |
SCF-cycle:                         575.044   252.238  43.5% |----------------|
 CG:                               126.996   114.088  19.7% |-------|
  CG: orthonormalize:               12.907     7.560   1.3% ||
   CG: overlap:                      3.250     3.250   0.6% |
   CG: overlap2:                     2.097     2.097   0.4% |
 Davidson:                           7.710     4.735   0.8% |
  calc. matrices:                    2.005     2.005   0.3% |
  diagonalize:                       0.562     0.562   0.1% |
  rotate_psi:                        0.408     0.408   0.1% |
 Density:                            2.387     0.002   0.0% |
  Atomic density matrices:           0.174     0.174   0.0% |
  Mix:                               0.191     0.191   0.0% |
  Multipole moments:                 0.008     0.008   0.0% |
  Pseudo density:                    2.012     1.181   0.2% |
   Symmetrize density:               0.831     0.831   0.1% |
 Hamiltonian:                        9.094     0.019   0.0% |
  Atomic:                            7.330     0.031   0.0% |
   XC Correction:                    7.299     7.299   1.3% ||
  Calculate atomic Hamiltonians:     0.080     0.080   0.0% |
  Communicate:                       0.000     0.000   0.0% |
  Poisson:                           0.007     0.007   0.0% |
  XC 3D grid:                        1.658     1.658   0.3% |
 Orthonormalize:                     0.134     0.011   0.0% |
  Band Layouts:                      0.008     0.003   0.0% |
   Inverse Cholesky:                 0.005     0.005   0.0% |
  calc_s_matrix:                     0.020     0.020   0.0% |
  projections:                       0.078     0.078   0.0% |
  rotate_psi:                        0.017     0.017   0.0% |
 Residuals:                         52.962    52.962   9.1% |---|
 Subspace diag:                    123.524     8.850   1.5% ||
  Band Layouts:                     14.604     2.512   0.4% |
   Diagonalize:                     10.304    10.304   1.8% ||
   Distribute results:               1.788     1.788   0.3% |
  calc_h_matrix:                    83.678    83.678  14.4% |-----|
  rotate_psi:                       16.392    16.392   2.8% ||
Set symmetry:                        0.100     0.100   0.0% |
Other:                               2.340     2.340   0.4% |
-----------------------------------------------------------
Total:                                       579.792 100.0%

Date: Thu Feb 11 19:58:40 2021
element =  As
struct =  bcc
kpts =  (8,8,8)
element =  As
configuration =  [Ar] 3d10 4s2 4p3 4d0
valence =  ['4s', '4p', '4d']
occupations =  {'4s': 2, '4p': 3, '4d': 0}
nls =  4p
rNum =  600
lmax =  d
*******************************************
Starting confinement parameter optimization
Adjustable parameters and initial values:
  As_4d.r0 : 4.497548
  As_4p.r0 : 4.497548
  As_4s.r0 : 4.497548
  As_n.r0 : 6.746322
*******************************************

OPT_VAL: 4.497548179491889   4.497548179491889   4.497548179491889   6.746322269237833
VCONF:
  As_4d : PowerConfinement(r0=4.497548, s=2.000000)
  As_4p : PowerConfinement(r0=4.497548, s=2.000000)
  As_4s : PowerConfinement(r0=4.497548, s=2.000000)
  As_n : PowerConfinement(r0=6.746322, s=2.000000)
RESIDUAL: 0.0

OPT_VAL: 4.697548179491889   4.497548179491889   4.497548179491889   6.746322269237833
VCONF:
  As_4d : PowerConfinement(r0=4.697548, s=2.000000)
  As_4p : PowerConfinement(r0=4.497548, s=2.000000)
  As_4s : PowerConfinement(r0=4.497548, s=2.000000)
  As_n : PowerConfinement(r0=6.746322, s=2.000000)
RESIDUAL: 0.0

OPT_VAL: 4.497548179491889   4.697548179491889   4.497548179491889   6.746322269237833
VCONF:
  As_4d : PowerConfinement(r0=4.497548, s=2.000000)
  As_4p : PowerConfinement(r0=4.697548, s=2.000000)
  As_4s : PowerConfinement(r0=4.497548, s=2.000000)
  As_n : PowerConfinement(r0=6.746322, s=2.000000)
RESIDUAL: 0.0

OPT_VAL: 4.497548179491889   4.497548179491889   4.697548179491889   6.746322269237833
VCONF:
  As_4d : PowerConfinement(r0=4.497548, s=2.000000)
  As_4p : PowerConfinement(r0=4.497548, s=2.000000)
  As_4s : PowerConfinement(r0=4.697548, s=2.000000)
  As_n : PowerConfinement(r0=6.746322, s=2.000000)
RESIDUAL: 0.0

OPT_VAL: 4.497548179491889   4.497548179491889   4.497548179491889   6.946322269237833
VCONF:
  As_4d : PowerConfinement(r0=4.497548, s=2.000000)
  As_4p : PowerConfinement(r0=4.497548, s=2.000000)
  As_4s : PowerConfinement(r0=4.497548, s=2.000000)
  As_n : PowerConfinement(r0=6.946322, s=2.000000)
RESIDUAL: 0.0

OPT_VAL: 4.522548179491889   4.497548179491889   4.497548179491889   6.746322269237833
VCONF:
  As_4d : PowerConfinement(r0=4.522548, s=2.000000)
  As_4p : PowerConfinement(r0=4.497548, s=2.000000)
  As_4s : PowerConfinement(r0=4.497548, s=2.000000)
  As_n : PowerConfinement(r0=6.746322, s=2.000000)
RESIDUAL: 0.0

OPT_VAL: 4.497548179491889   4.522548179491889   4.497548179491889   6.746322269237833
VCONF:
  As_4d : PowerConfinement(r0=4.497548, s=2.000000)
  As_4p : PowerConfinement(r0=4.522548, s=2.000000)
  As_4s : PowerConfinement(r0=4.497548, s=2.000000)
  As_n : PowerConfinement(r0=6.746322, s=2.000000)
RESIDUAL: 0.0

OPT_VAL: 4.497548179491889   4.497548179491889   4.522548179491889   6.746322269237833
VCONF:
  As_4d : PowerConfinement(r0=4.497548, s=2.000000)
  As_4p : PowerConfinement(r0=4.497548, s=2.000000)
  As_4s : PowerConfinement(r0=4.522548, s=2.000000)
  As_n : PowerConfinement(r0=6.746322, s=2.000000)
RESIDUAL: 0.0

OPT_VAL: 4.497548179491889   4.497548179491889   4.497548179491889   6.771322269237833
VCONF:
  As_4d : PowerConfinement(r0=4.497548, s=2.000000)
  As_4p : PowerConfinement(r0=4.497548, s=2.000000)
  As_4s : PowerConfinement(r0=4.497548, s=2.000000)
  As_n : PowerConfinement(r0=6.771322, s=2.000000)
RESIDUAL: 0.0

OPT_VAL: 4.502548179491889   4.497548179491889   4.497548179491889   6.746322269237833
VCONF:
  As_4d : PowerConfinement(r0=4.502548, s=2.000000)
  As_4p : PowerConfinement(r0=4.497548, s=2.000000)
  As_4s : PowerConfinement(r0=4.497548, s=2.000000)
  As_n : PowerConfinement(r0=6.746322, s=2.000000)
RESIDUAL: 0.0

OPT_VAL: 4.497548179491889   4.502548179491889   4.497548179491889   6.746322269237833
VCONF:
  As_4d : PowerConfinement(r0=4.497548, s=2.000000)
  As_4p : PowerConfinement(r0=4.502548, s=2.000000)
  As_4s : PowerConfinement(r0=4.497548, s=2.000000)
  As_n : PowerConfinement(r0=6.746322, s=2.000000)
RESIDUAL: 0.0

OPT_VAL: 4.497548179491889   4.497548179491889   4.502548179491889   6.746322269237833
VCONF:
  As_4d : PowerConfinement(r0=4.497548, s=2.000000)
  As_4p : PowerConfinement(r0=4.497548, s=2.000000)
  As_4s : PowerConfinement(r0=4.502548, s=2.000000)
  As_n : PowerConfinement(r0=6.746322, s=2.000000)
RESIDUAL: 0.0

OPT_VAL: 4.497548179491889   4.497548179491889   4.497548179491889   6.751322269237833
VCONF:
  As_4d : PowerConfinement(r0=4.497548, s=2.000000)
  As_4p : PowerConfinement(r0=4.497548, s=2.000000)
  As_4s : PowerConfinement(r0=4.497548, s=2.000000)
  As_n : PowerConfinement(r0=6.751322, s=2.000000)
RESIDUAL: 0.0

*******************************************
Optimization finished after 13 iterations
Adjustable parameters and final values:
  As_4d.r0 : 4.497548
  As_4p.r0 : 4.497548
  As_4s.r0 : 4.497548
  As_n.r0 : 6.746322
*******************************************

VCONF:
  As_4d : PowerConfinement(r0=4.497548, s=2.000000)
  As_4p : PowerConfinement(r0=4.497548, s=2.000000)
  As_4s : PowerConfinement(r0=4.497548, s=2.000000)
  As_n : PowerConfinement(r0=6.746322, s=2.000000)
