element =  C
struct =  hcp
nbands =  -4
path =  GMKGA
kpts =  (8,8,4)
lattice constant a =  2.286
lattice constant b =  2.286
lattice constant c =  3.584
alpha angle =  90.0

  ___ ___ ___ _ _ _  
 |   |   |_  | | | | 
 | | | | | . | | | | 
 |__ |  _|___|_____|  1.3.1b1
 |___|_|             

User:   inukai@DESKTOP-12SE80T
Date:   Thu Feb 11 13:02:50 2021
Arch:   x86_64
Pid:    8769
Python: 3.6.9
gpaw:   /usr/lib/python3/dist-packages/gpaw
_gpaw:  /usr/lib/python3/dist-packages/_gpaw.cpython-36m-x86_64-linux-gnu.so
ase:    /home/inukai/hotcent/ase-3.19.3/ase (version 3.19.3)
numpy:  /home/inukai/.local/lib/python3.6/site-packages/numpy (version 1.19.5)
scipy:  /home/inukai/.local/lib/python3.6/site-packages/scipy (version 1.5.4)
units:  Angstrom and eV
cores:  1

Input parameters:
  kpts: [8 8 4]
  maxiter: 1500
  mixer: {backend: pulay,
          beta: 0.01,
          method: separate,
          nmaxold: 11,
          weight: 100.0}
  mode: {ecut: 400.0,
         name: pw}
  occupations: {name: fermi-dirac,
                width: 0.02}
  spinpol: True
  xc: PBE

System changes: positions, numbers, cell, pbc, initial_charges, initial_magmoms 

Initialize ...

C-setup:
  name: Carbon
  id: 4aa54d4b901d75f77cc0ea3eec22967b
  Z: 6
  valence: 4
  core: 2
  charge: 0.0
  file: /usr/share/gpaw-setups/C.PBE.gz
  cutoffs: 0.64(comp), 1.14(filt), 1.14(core), lmax=2
  valence states:
                energy  radius
    2s(2.00)   -13.751   0.635
    2p(2.00)    -5.284   0.635
    *s          13.461   0.635
    *p          21.927   0.635
    *d           0.000   0.635

  Using partial waves for C as LCAO basis

Reference energy: -2055.256231

Spin-polarized calculation.
Magnetic moment:  0.000000

Occupation numbers:
  Fermi-Dirac: width=0.0200 eV

Convergence criteria:
  Maximum total energy change: 0.0005 eV / electron
  Maximum integral of absolute density change: 0.0001 electrons
  Maximum integral of absolute eigenstate change: 4e-08 eV^2
  Maximum number of iterations: 1500

Symmetries present (total): 12

  ( 1  1  0)  ( 1  1  0)  ( 1  0  0)  ( 1  0  0)  ( 0  1  0)  ( 0  1  0)
  ( 0 -1  0)  ( 0 -1  0)  ( 0  1  0)  ( 0  1  0)  (-1 -1  0)  (-1 -1  0)
  ( 0  0  1)  ( 0  0 -1)  ( 0  0  1)  ( 0  0 -1)  ( 0  0  1)  ( 0  0 -1)

  ( 0 -1  0)  ( 0 -1  0)  (-1  0  0)  (-1  0  0)  (-1 -1  0)  (-1 -1  0)
  (-1  0  0)  (-1  0  0)  ( 1  1  0)  ( 1  1  0)  ( 1  0  0)  ( 1  0  0)
  ( 0  0  1)  ( 0  0 -1)  ( 0  0  1)  ( 0  0 -1)  ( 0  0  1)  ( 0  0 -1)
Note: your k-points are not as symmetric as your crystal!

256 k-points: 8 x 8 x 4 Monkhorst-Pack grid
40 k-points in the irreducible part of the Brillouin zone
       k-points in crystal coordinates                weights
   0:     0.06250000   -0.06250000    0.12500000          4/256
   1:     0.06250000   -0.06250000    0.37500000          4/256
   2:     0.06250000    0.06250000    0.12500000          4/256
   3:     0.06250000    0.06250000    0.37500000          4/256
   4:     0.18750000   -0.18750000    0.12500000          4/256
   5:     0.18750000   -0.18750000    0.37500000          4/256
   6:     0.18750000   -0.06250000    0.12500000          8/256
   7:     0.18750000   -0.06250000    0.37500000          8/256
   8:     0.18750000    0.06250000    0.12500000          8/256
   9:     0.18750000    0.06250000    0.37500000          8/256
          ...
  39:     0.43750000    0.43750000    0.37500000          4/256

Wave functions: Plane wave expansion
  Cutoff energy: 400.000 eV
  Number of coefficients (min, max): 288, 303
  Using FFTW library
  Eigensolver: None  MatrixOperator buffer_size: default value or 
                              see value of nblock in input file
Diagonalizer layout: Serial LAPACKOrthonormalizer layout: Serial LAPACK 

Davidson(niter=1, smin=None, normalize=True) 

Densities:
  Coarse grid: 9*9*18 grid
  Fine grid: 18*18*36 grid
  Total Charge: 0.000000 

Density mixing:
  Method: separate
  Backend: pulay
  Linear mixing parameter: 0.01
  Mixing with 11 old densities
  Damping of long wave oscillations: 100 

Hamiltonian:
  XC and Coulomb potentials evaluated on a 18*18*36 grid
  Using the PBE Exchange-Correlation functional
 

Memory estimate:
  Process memory now: 926.42 MiB
  Calculator: 6.14 MiB
    Density: 1.07 MiB
      Arrays: 0.39 MiB
      Localized functions: 0.19 MiB
      Mixer: 0.49 MiB
    Hamiltonian: 0.29 MiB
      Arrays: 0.29 MiB
      XC: 0.00 MiB
      Poisson: 0.00 MiB
      vbar: 0.00 MiB
    Wavefunctions: 4.77 MiB
      Arrays psit_nG: 2.96 MiB
      Eigensolver: 0.07 MiB
      Projections: 0.25 MiB
      Projectors: 1.26 MiB
      Overlap op: 0.04 MiB
      PW-descriptor: 0.19 MiB

Total number of cores used: 1

Number of atoms: 2
Number of atomic orbitals: 8
Number of bands in calculation: 8
Bands to converge: occupied states only
Number of valence electrons: 8

... initialized

Initializing position-dependent things.

Density initialized from atomic densities
Creating initial wave functions:
  8 bands from LCAO basis set

                 
                 
                 
                 
        C        
                 
       C         
                 
                 
                 
                 

Positions:
   0 C      0.000000    0.000000    0.000000
   1 C      0.000000    1.319823    1.792000

Unit cell:
           periodic     x           y           z      points  spacing
  1. axis:    yes    2.286000    0.000000    0.000000     9     0.2200
  2. axis:    yes   -1.143000    1.979734    0.000000     9     0.2200
  3. axis:    yes    0.000000    0.000000    3.584000    18     0.1991

  Lengths:   2.286000   2.286000   3.584000
  Angles:   90.000000  90.000000 120.000000

Effective grid spacing dv^(1/3) = 0.2232

                     log10-error:    total        iterations:
           time      wfs    density  energy       fermi  poisson  magmom
iter:   1  13:02:54  +1.07   +inf    -9.050432    3               -0.0000
iter:   2  13:02:55  -0.24   +inf    -9.090912    4               +0.0000
iter:   3  13:02:56  -1.68   +inf    -9.093460    2               +0.0000
iter:   4  13:02:58  -2.58  -1.61    -9.093256    3               +0.0000
iter:   5  13:02:59  -1.54  -1.61    -9.077568    30              -0.0000
iter:   6  13:03:01  -2.74  -2.38    -9.077653    4               -0.0000
iter:   7  13:03:02  -3.64  -2.53    -9.077656    4               +0.0000
iter:   8  13:03:03  -3.34  -2.51    -9.078238    4               +0.0000
iter:   9  13:03:05  -3.20  -2.47    -9.077877    4               +0.0000
iter:  10  13:03:06  -4.57  -3.45    -9.077878    3               +0.0000
iter:  11  13:03:07  -4.26  -3.70    -9.077901    3               +0.0000
iter:  12  13:03:09  -4.09  -2.94    -9.077885    3               -0.0000
iter:  13  13:03:10  -5.47  -4.18    -9.077886    2               -0.0000
iter:  14  13:03:11  -6.45  -4.11    -9.077886    2               -0.0000
iter:  15  13:03:13  -6.60  -3.93    -9.077885    2               -0.0000
iter:  16  13:03:14  -7.04  -4.41    -9.077885    2               -0.0000
iter:  17  13:03:15  -8.13  -5.06    -9.077885    2               -0.0000

Converged after 17 iterations.

Dipole moment: (-1.325015, 0.764998, -0.000000) |e|*Ang

Total magnetic moment: -0.000000
Local magnetic moments:
   0 C  -0.000000
   1 C  -0.000000

Energy contributions relative to reference atoms: (reference = -2055.256231)

Kinetic:         +1.066276
Potential:       -2.308864
External:        +0.000000
XC:              -7.946541
Entropy (-ST):   -0.002138
Local:           +0.112314
--------------------------
Free energy:     -9.078953
Extrapolated:    -9.077885

Spin contamination: 0.000000 electrons
Fermi level: 7.66500

Warning: Showing only first 2 kpts
                      Up                     Down
 Kpt  Band  Eigenvalues  Occupancy  Eigenvalues  Occupancy
  0     2      2.49836    0.01562      2.49836    0.01562
  0     3     12.64484    0.00000     12.64484    0.00000
  0     4     12.92851    0.00000     12.92851    0.00000
  0     5     14.53160    0.00000     14.53160    0.00000

  1     2      7.54770    0.01558      7.54770    0.01558
  1     3     12.24382    0.00000     12.24382    0.00000
  1     4     13.19157    0.00000     13.19157    0.00000
  1     5     13.44918    0.00000     13.44918    0.00000


Input parameters:
  convergence: {bands: all}
  eigensolver: {name: cg,
                niter: 5}
  fixdensity: True
  kpts: {npoints: 50,
         path: GMKGA}
  nbands: -4
  symmetry: off

Initialize ...

C-setup:
  name: Carbon
  id: 4aa54d4b901d75f77cc0ea3eec22967b
  Z: 6
  valence: 4
  core: 2
  charge: 0.0
  file: /usr/share/gpaw-setups/C.PBE.gz
  cutoffs: 0.64(comp), 1.14(filt), 1.14(core), lmax=2
  valence states:
                energy  radius
    2s(2.00)   -13.751   0.635
    2p(2.00)    -5.284   0.635
    *s          13.461   0.635
    *p          21.927   0.635
    *d           0.000   0.635

  Using partial waves for C as LCAO basis

Reference energy: -2055.256231

Spin-polarized calculation.
Magnetic moment:  0.000000

Occupation numbers:
  Fixed Fermi level
  Fermi-Dirac: width=0.0200 eV

Convergence criteria:
  Maximum total energy change: 0.0005 eV / electron
  Maximum integral of absolute density change: 0.0001 electrons
  Maximum integral of absolute eigenstate change: 4e-08 eV^2
  Maximum number of iterations: 1500

Symmetries present (total): 1

  ( 1  0  0)
  ( 0  1  0)
  ( 0  0  1)

50 k-points
50 k-points in the irreducible part of the Brillouin zone
       k-points in crystal coordinates                weights
   0:     0.00000000    0.00000000    0.00000000          1/50
   1:     0.03571429    0.00000000    0.00000000          1/50
   2:     0.07142857    0.00000000    0.00000000          1/50
   3:     0.10714286    0.00000000    0.00000000          1/50
   4:     0.14285714    0.00000000    0.00000000          1/50
   5:     0.17857143    0.00000000    0.00000000          1/50
   6:     0.21428571    0.00000000    0.00000000          1/50
   7:     0.25000000    0.00000000    0.00000000          1/50
   8:     0.28571429    0.00000000    0.00000000          1/50
   9:     0.32142857    0.00000000    0.00000000          1/50
          ...
  49:     0.00000000    0.00000000    0.50000000          1/50

Wave functions: Plane wave expansion
  Cutoff energy: 400.000 eV
  Number of coefficients (min, max): 287, 305
  Using FFTW library
  Eigensolver: None  MatrixOperator buffer_size: default value or 
                              see value of nblock in input file
Diagonalizer layout: Serial LAPACKOrthonormalizer layout: Serial LAPACK 

CG(niter=5, rtol=3.0e-01) 

No density mixing

Memory estimate:
  Process memory now: 983.64 MiB
  Calculator: 7.31 MiB
    Density: 1.07 MiB
      Arrays: 0.39 MiB
      Localized functions: 0.19 MiB
      Mixer: 0.49 MiB
    Hamiltonian: 0.29 MiB
      Arrays: 0.29 MiB
      XC: 0.00 MiB
      Poisson: 0.00 MiB
      vbar: 0.00 MiB
    Wavefunctions: 5.94 MiB
      Arrays psit_nG: 3.72 MiB
      Eigensolver: 0.06 MiB
      Projections: 0.32 MiB
      Projectors: 1.58 MiB
      Overlap op: 0.04 MiB
      PW-descriptor: 0.22 MiB

Total number of cores used: 1

Number of atoms: 2
Number of atomic orbitals: 8
Number of bands in calculation: 8
Bands to converge: all
Number of valence electrons: 8

... initialized

Initializing position-dependent things.

Creating initial wave functions:
  8 bands from LCAO basis set

                 
                 
                 
                 
        C        
                 
       C         
                 
                 
                 
                 

Positions:
   0 C      0.000000    0.000000    0.000000
   1 C      0.000000    1.319823    1.792000

Unit cell:
           periodic     x           y           z      points  spacing
  1. axis:    yes    2.286000    0.000000    0.000000     9     0.2200
  2. axis:    yes   -1.143000    1.979734    0.000000     9     0.2200
  3. axis:    yes    0.000000    0.000000    3.584000    18     0.1991

  Lengths:   2.286000   2.286000   3.584000
  Angles:   90.000000  90.000000 120.000000

Effective grid spacing dv^(1/3) = 0.2232

                     log10-error:    total        iterations:
           time      wfs    density  energy       fermi  poisson  magmom
iter:   1  13:03:22  +0.98          -11.842872    31              -0.0000
iter:   2  13:03:26  +0.09          -11.884134    32              -0.0000
iter:   3  13:03:29  -1.18          -11.886974    31              -0.0000
iter:   4  13:03:33  -1.99          -11.887226    29              -0.0000
iter:   5  13:03:37  -3.03          -11.887253    31              -0.0000
iter:   6  13:03:40  -3.77          -11.887257    30              -0.0000
iter:   7  13:03:44  -4.61          -11.887257    31              -0.0000
iter:   8  13:03:47  -5.25          -11.887257    31              -0.0000
iter:   9  13:03:49  -5.97          -11.887257    30              -0.0000
iter:  10  13:03:51  -6.57          -11.887257    30              -0.0000
iter:  11  13:03:52  -7.21          -11.887257    28              -0.0000
iter:  12  13:03:53  -7.73          -11.887257    28              -0.0000

Converged after 12 iterations.

Dipole moment: (-1.325015, 0.764998, -0.000000) |e|*Ang

Total magnetic moment: -0.000000
Local magnetic moments:
   0 C  -0.000000
   1 C  -0.000000

Energy contributions relative to reference atoms: (reference = -2055.256231)

Kinetic:         -1.743462
Potential:       -2.308875
External:        +0.000000
XC:              -7.946554
Entropy (-ST):   -0.001371
Local:           +0.112319
--------------------------
Free energy:    -11.887943
Extrapolated:   -11.887257

Spin contamination: 0.000000 electrons
Fixed Fermi level: 7.66500

Warning: Showing only first 2 kpts
                      Up                     Down
 Kpt  Band  Eigenvalues  Occupancy  Eigenvalues  Occupancy
  0     2      0.46077    0.02000      0.46077    0.02000
  0     3     13.07932    0.00000     13.07932    0.00000
  0     4     13.08610    0.00000     13.08610    0.00000
  0     5     14.79745    0.00000     14.79745    0.00000

  1     2      0.50149    0.02000      0.50149    0.02000
  1     3     12.90885    0.00000     12.90885    0.00000
  1     4     13.01015    0.00000     13.01015    0.00000
  1     5     14.75024    0.00000     14.75024    0.00000


Timing:                              incl.     excl.
-----------------------------------------------------------
Hamiltonian:                         0.600     0.001   0.0% |
 Atomic:                             0.491     0.003   0.0% |
  XC Correction:                     0.488     0.488   0.8% |
 Calculate atomic Hamiltonians:      0.009     0.009   0.0% |
 Communicate:                        0.000     0.000   0.0% |
 Initialize Hamiltonian:             0.000     0.000   0.0% |
 Poisson:                            0.000     0.000   0.0% |
 XC 3D grid:                         0.098     0.098   0.2% |
LCAO initialization:                 5.004     0.045   0.1% |
 LCAO eigensolver:                   2.811     0.018   0.0% |
  Calculate projections:             0.007     0.007   0.0% |
  DenseAtomicCorrection:             0.046     0.046   0.1% |
  Distribute overlap matrix:         0.007     0.007   0.0% |
  Orbital Layouts:                   0.062     0.062   0.1% |
  Potential matrix:                  0.565     0.565   0.9% |
  Sum over cells:                    2.106     2.106   3.3% ||
 LCAO to grid:                       0.635     0.635   1.0% |
 Set positions (LCAO WFS):           1.513     0.001   0.0% |
  Basic WFS set positions:           0.001     0.001   0.0% |
  Basis functions set positions:     0.000     0.000   0.0% |
  TCI: Calculate S, T, P:            1.511     1.511   2.4% ||
PWDescriptor:                        0.022     0.022   0.0% |
Redistribute:                        0.000     0.000   0.0% |
SCF-cycle:                          56.104     5.258   8.2% |--|
 CG:                                25.619    23.055  36.0% |-------------|
  CG: orthonormalize:                2.564     1.469   2.3% ||
   CG: overlap:                      0.566     0.566   0.9% |
   CG: overlap2:                     0.529     0.529   0.8% |
 Davidson:                          11.334     6.658  10.4% |---|
  calc. matrices:                    3.141     3.141   4.9% |-|
  diagonalize:                       1.108     1.108   1.7% ||
  rotate_psi:                        0.428     0.428   0.7% |
 Density:                            1.731     0.001   0.0% |
  Atomic density matrices:           0.041     0.041   0.1% |
  Mix:                               0.114     0.114   0.2% |
  Multipole moments:                 0.002     0.002   0.0% |
  Pseudo density:                    1.573     1.534   2.4% ||
   Symmetrize density:               0.040     0.040   0.1% |
 Hamiltonian:                        4.149     0.009   0.0% |
  Atomic:                            3.471     0.017   0.0% |
   XC Correction:                    3.454     3.454   5.4% |-|
  Calculate atomic Hamiltonians:     0.058     0.058   0.1% |
  Communicate:                       0.000     0.000   0.0% |
  Poisson:                           0.003     0.003   0.0% |
  XC 3D grid:                        0.607     0.607   0.9% |
 Orthonormalize:                     0.253     0.014   0.0% |
  Band Layouts:                      0.010     0.004   0.0% |
   Inverse Cholesky:                 0.007     0.007   0.0% |
  calc_s_matrix:                     0.031     0.031   0.0% |
  projections:                       0.172     0.172   0.3% |
  rotate_psi:                        0.026     0.026   0.0% |
 Residuals:                          1.451     1.451   2.3% ||
 Subspace diag:                      6.308     0.320   0.5% |
  Band Layouts:                      0.696     0.091   0.1% |
   Diagonalize:                      0.537     0.537   0.8% |
   Distribute results:               0.068     0.068   0.1% |
  calc_h_matrix:                     4.659     4.659   7.3% |--|
  rotate_psi:                        0.634     0.634   1.0% |
Set symmetry:                        0.029     0.029   0.0% |
Other:                               2.318     2.318   3.6% ||
-----------------------------------------------------------
Total:                                        64.076 100.0%

Date: Thu Feb 11 13:03:54 2021
element =  C
struct =  hcp
kpts =  (8,8,4)
element =  C
configuration =  [He] 2s2 2p2
valence =  ['2s', '2p']
occupations =  {'2s': 2, '2p': 2}
nls =  2p
rNum =  600
lmax =  p
*******************************************
Starting confinement parameter optimization
Adjustable parameters and initial values:
  C_2p.r0 : 2.872384
  C_2s.r0 : 2.872384
  C_n.r0 : 4.308576
*******************************************

OPT_VAL: 2.872383711272131   2.872383711272131   4.308575566908196
VCONF:
  C_2p : PowerConfinement(r0=2.872384, s=2.000000)
  C_2s : PowerConfinement(r0=2.872384, s=2.000000)
  C_n : PowerConfinement(r0=4.308576, s=2.000000)
RESIDUAL: 0.0

OPT_VAL: 3.0723837112721313   2.872383711272131   4.308575566908196
VCONF:
  C_2p : PowerConfinement(r0=3.072384, s=2.000000)
  C_2s : PowerConfinement(r0=2.872384, s=2.000000)
  C_n : PowerConfinement(r0=4.308576, s=2.000000)
RESIDUAL: 0.0

OPT_VAL: 2.872383711272131   3.0723837112721313   4.308575566908196
VCONF:
  C_2p : PowerConfinement(r0=2.872384, s=2.000000)
  C_2s : PowerConfinement(r0=3.072384, s=2.000000)
  C_n : PowerConfinement(r0=4.308576, s=2.000000)
RESIDUAL: 0.0

OPT_VAL: 2.872383711272131   2.872383711272131   4.508575566908196
VCONF:
  C_2p : PowerConfinement(r0=2.872384, s=2.000000)
  C_2s : PowerConfinement(r0=2.872384, s=2.000000)
  C_n : PowerConfinement(r0=4.508576, s=2.000000)
RESIDUAL: 0.0

OPT_VAL: 2.897383711272131   2.872383711272131   4.308575566908196
VCONF:
  C_2p : PowerConfinement(r0=2.897384, s=2.000000)
  C_2s : PowerConfinement(r0=2.872384, s=2.000000)
  C_n : PowerConfinement(r0=4.308576, s=2.000000)
RESIDUAL: 0.0

OPT_VAL: 2.872383711272131   2.897383711272131   4.308575566908196
VCONF:
  C_2p : PowerConfinement(r0=2.872384, s=2.000000)
  C_2s : PowerConfinement(r0=2.897384, s=2.000000)
  C_n : PowerConfinement(r0=4.308576, s=2.000000)
RESIDUAL: 0.0

OPT_VAL: 2.872383711272131   2.872383711272131   4.333575566908197
VCONF:
  C_2p : PowerConfinement(r0=2.872384, s=2.000000)
  C_2s : PowerConfinement(r0=2.872384, s=2.000000)
  C_n : PowerConfinement(r0=4.333576, s=2.000000)
RESIDUAL: 0.0

OPT_VAL: 2.877383711272131   2.872383711272131   4.308575566908196
VCONF:
  C_2p : PowerConfinement(r0=2.877384, s=2.000000)
  C_2s : PowerConfinement(r0=2.872384, s=2.000000)
  C_n : PowerConfinement(r0=4.308576, s=2.000000)
RESIDUAL: 0.0

OPT_VAL: 2.872383711272131   2.877383711272131   4.308575566908196
VCONF:
  C_2p : PowerConfinement(r0=2.872384, s=2.000000)
  C_2s : PowerConfinement(r0=2.877384, s=2.000000)
  C_n : PowerConfinement(r0=4.308576, s=2.000000)
RESIDUAL: 0.0

OPT_VAL: 2.872383711272131   2.872383711272131   4.313575566908196
VCONF:
  C_2p : PowerConfinement(r0=2.872384, s=2.000000)
  C_2s : PowerConfinement(r0=2.872384, s=2.000000)
  C_n : PowerConfinement(r0=4.313576, s=2.000000)
RESIDUAL: 0.0

*******************************************
Optimization finished after 10 iterations
Adjustable parameters and final values:
  C_2p.r0 : 2.872384
  C_2s.r0 : 2.872384
  C_n.r0 : 4.308576
*******************************************

VCONF:
  C_2p : PowerConfinement(r0=2.872384, s=2.000000)
  C_2s : PowerConfinement(r0=2.872384, s=2.000000)
  C_n : PowerConfinement(r0=4.308576, s=2.000000)
