element =  Ge
struct =  diamond
nbands =  -4
path =  LGXUG
kpts =  (8,8,8)
lattice constant a =  5.6575
lattice constant b =  5.6575
lattice constant c =  5.6575
alpha angle =  90.0

  ___ ___ ___ _ _ _  
 |   |   |_  | | | | 
 | | | | | . | | | | 
 |__ |  _|___|_____|  1.3.1b1
 |___|_|             

User:   inukai@DESKTOP-12SE80T
Date:   Thu Feb 11 19:28:43 2021
Arch:   x86_64
Pid:    13538
Python: 3.6.9
gpaw:   /usr/lib/python3/dist-packages/gpaw
_gpaw:  /usr/lib/python3/dist-packages/_gpaw.cpython-36m-x86_64-linux-gnu.so
ase:    /home/inukai/hotcent/ase-3.19.3/ase (version 3.19.3)
numpy:  /home/inukai/.local/lib/python3.6/site-packages/numpy (version 1.19.5)
scipy:  /home/inukai/.local/lib/python3.6/site-packages/scipy (version 1.5.4)
units:  Angstrom and eV
cores:  1

Input parameters:
  kpts: [8 8 8]
  maxiter: 1500
  mixer: {backend: pulay,
          beta: 0.01,
          method: separate,
          nmaxold: 11,
          weight: 100.0}
  mode: {ecut: 400.0,
         name: pw}
  occupations: {name: fermi-dirac,
                width: 0.02}
  spinpol: True
  xc: PBE

System changes: positions, numbers, cell, pbc, initial_charges, initial_magmoms 

Initialize ...

Ge-setup:
  name: Germanium
  id: 9ec617d8d148b76cb5ff523bd08bd36c
  Z: 32
  valence: 4
  core: 28
  charge: 0.0
  file: /usr/share/gpaw-setups/Ge.PBE.gz
  cutoffs: 1.01(comp), 1.77(filt), 3.42(core), lmax=2
  valence states:
                energy  radius
    4s(2.00)   -11.726   1.005
    4p(2.00)    -3.896   1.005
    *s          15.485   1.005
    *p          23.315   1.005
    *d           0.000   1.005

  Using partial waves for Ge as LCAO basis

Reference energy: -114195.275705

Spin-polarized calculation.
Magnetic moment:  0.000000

Occupation numbers:
  Fermi-Dirac: width=0.0200 eV

Convergence criteria:
  Maximum total energy change: 0.0005 eV / electron
  Maximum integral of absolute density change: 0.0001 electrons
  Maximum integral of absolute eigenstate change: 4e-08 eV^2
  Maximum number of iterations: 1500

Symmetries present (total): 24

  ( 1  0  0)  ( 1  0  0)  ( 1  0 -1)  ( 1  0 -1)  ( 1 -1  0)  ( 1 -1  0)
  ( 0  1  0)  ( 0  0  1)  ( 0  1 -1)  ( 0  0 -1)  ( 0 -1  1)  ( 0 -1  0)
  ( 0  0  1)  ( 0  1  0)  ( 0  0 -1)  ( 0  1 -1)  ( 0 -1  0)  ( 0 -1  1)

  ( 0  1  0)  ( 0  1  0)  ( 0  1 -1)  ( 0  1 -1)  ( 0  0  1)  ( 0  0  1)
  ( 1  0  0)  ( 0  0  1)  ( 1  0 -1)  ( 0  0 -1)  ( 1  0  0)  ( 0  1  0)
  ( 0  0  1)  ( 1  0  0)  ( 0  0 -1)  ( 1  0 -1)  ( 0  1  0)  ( 1  0  0)

  ( 0  0 -1)  ( 0  0 -1)  ( 0 -1  1)  ( 0 -1  1)  ( 0 -1  0)  ( 0 -1  0)
  ( 1  0 -1)  ( 0  1 -1)  ( 1 -1  0)  ( 0 -1  0)  ( 1 -1  0)  ( 0 -1  1)
  ( 0  1 -1)  ( 1  0 -1)  ( 0 -1  0)  ( 1 -1  0)  ( 0 -1  1)  ( 1 -1  0)

  (-1  1  0)  (-1  1  0)  (-1  0  1)  (-1  0  1)  (-1  0  0)  (-1  0  0)
  (-1  0  1)  (-1  0  0)  (-1  1  0)  (-1  0  0)  (-1  1  0)  (-1  0  1)
  (-1  0  0)  (-1  0  1)  (-1  0  0)  (-1  1  0)  (-1  0  1)  (-1  1  0)
Note: your k-points are not as symmetric as your crystal!

512 k-points: 8 x 8 x 8 Monkhorst-Pack grid
60 k-points in the irreducible part of the Brillouin zone
       k-points in crystal coordinates                weights
   0:     0.06250000    0.06250000   -0.06250000          6/512
   1:     0.06250000    0.06250000    0.06250000          2/512
   2:     0.18750000   -0.06250000   -0.06250000          6/512
   3:     0.18750000    0.06250000   -0.18750000         12/512
   4:     0.18750000    0.06250000   -0.06250000         12/512
   5:     0.18750000    0.06250000    0.06250000          6/512
   6:     0.18750000    0.18750000   -0.18750000          6/512
   7:     0.18750000    0.18750000   -0.06250000          6/512
   8:     0.18750000    0.18750000    0.06250000          6/512
   9:     0.18750000    0.18750000    0.18750000          2/512
          ...
  59:     0.43750000    0.43750000    0.43750000          2/512

Wave functions: Plane wave expansion
  Cutoff energy: 400.000 eV
  Number of coefficients (min, max): 809, 857
  Using FFTW library
  Eigensolver: None  MatrixOperator buffer_size: default value or 
                              see value of nblock in input file
Diagonalizer layout: Serial LAPACKOrthonormalizer layout: Serial LAPACK 

Davidson(niter=1, smin=None, normalize=True) 

Densities:
  Coarse grid: 15*15*15 grid
  Fine grid: 30*30*30 grid
  Total Charge: 0.000000 

Density mixing:
  Method: separate
  Backend: pulay
  Linear mixing parameter: 0.01
  Mixing with 11 old densities
  Damping of long wave oscillations: 100 

Hamiltonian:
  XC and Coulomb potentials evaluated on a 30*30*30 grid
  Using the PBE Exchange-Correlation functional
 

Memory estimate:
  Process memory now: 928.11 MiB
  Calculator: 22.36 MiB
    Density: 2.49 MiB
      Arrays: 0.90 MiB
      Localized functions: 0.46 MiB
      Mixer: 1.13 MiB
    Hamiltonian: 0.68 MiB
      Arrays: 0.67 MiB
      XC: 0.00 MiB
      Poisson: 0.00 MiB
      vbar: 0.01 MiB
    Wavefunctions: 19.19 MiB
      Arrays psit_nG: 12.55 MiB
      Eigensolver: 0.18 MiB
      Projections: 0.38 MiB
      Projectors: 5.28 MiB
      Overlap op: 0.11 MiB
      PW-descriptor: 0.69 MiB

Total number of cores used: 1

Number of atoms: 2
Number of atomic orbitals: 8
Number of bands in calculation: 8
Bands to converge: occupied states only
Number of valence electrons: 8

... initialized

Initializing position-dependent things.

Density initialized from atomic densities
Creating initial wave functions:
  8 bands from LCAO basis set

                    
                    
                    
                    
           Ge       
                    
       Ge           
                    
                    
                    
                    

Positions:
   0 Ge     0.000000    0.000000    0.000000
   1 Ge     1.414375    1.414375    1.414375

Unit cell:
           periodic     x           y           z      points  spacing
  1. axis:    yes    0.000000    2.828750    2.828750    15     0.2178
  2. axis:    yes    2.828750    0.000000    2.828750    15     0.2178
  3. axis:    yes    2.828750    2.828750    0.000000    15     0.2178

  Lengths:   4.000457   4.000457   4.000457
  Angles:   60.000000  60.000000  60.000000

Effective grid spacing dv^(1/3) = 0.2376

                     log10-error:    total        iterations:
           time      wfs    density  energy       fermi  poisson  magmom
iter:   1  19:28:48  +1.34   +inf    -8.983310    2               +0.0000
iter:   2  19:28:50  -0.46   +inf    -9.019674    2               +0.0000
iter:   3  19:28:52  -1.65   +inf    -9.022451    1               -0.0000
iter:   4  19:28:55  -2.42  -0.89    -9.021980    2               +0.0000
iter:   5  19:28:58  -1.47  -0.89    -8.986029    17              +0.0000
iter:   6  19:29:00  -2.11  -1.51    -8.988991    6               +0.0000
iter:   7  19:29:03  -2.90  -1.83    -8.989054    2               -0.0000
iter:   8  19:29:06  -2.44  -1.80    -8.987721    5               +0.0000
iter:   9  19:29:08  -3.37  -2.17    -8.987369    3               -0.0000
iter:  10  19:29:11  -4.31  -2.97    -8.987381    2               -0.0000
iter:  11  19:29:13  -4.99  -3.00    -8.987385    1               +0.0000
iter:  12  19:29:16  -4.92  -3.08    -8.987391    2               +0.0000
iter:  13  19:29:19  -5.52  -3.62    -8.987391    2               +0.0000
iter:  14  19:29:21  -5.91  -3.80    -8.987392    1               +0.0000
iter:  15  19:29:24  -6.37  -3.87    -8.987392    1               +0.0000
iter:  16  19:29:27  -6.63  -3.91    -8.987392    1               -0.0000
iter:  17  19:29:29  -7.08  -4.16    -8.987392    1               +0.0000
iter:  18  19:29:32  -7.24  -3.98    -8.987392    1               +0.0000
iter:  19  19:29:34  -7.54  -4.18    -8.987392    1               +0.0000

Converged after 19 iterations.

Dipole moment: (-3.207726, -3.207726, -3.207726) |e|*Ang

Total magnetic moment: 0.000000
Local magnetic moments:
   0 Ge 0.000000
   1 Ge 0.000000

Energy contributions relative to reference atoms: (reference = -114195.275705)

Kinetic:        +26.338417
Potential:      -23.511912
External:        +0.000000
XC:             -11.812576
Entropy (-ST):   -0.000001
Local:           -0.001320
--------------------------
Free energy:     -8.987392
Extrapolated:    -8.987392

Spin contamination: 0.000000 electrons
Fermi level: 6.05545

Warning: Showing only first 2 kpts
                      Up                     Down
 Kpt  Band  Eigenvalues  Occupancy  Eigenvalues  Occupancy
  0     2      5.40659    0.01172      5.40659    0.01172
  0     3      5.49483    0.01172      5.49483    0.01172
  0     4      7.57178    0.00000      7.57178    0.00000
  0     5      8.34826    0.00000      8.34826    0.00000

  1     2      5.87953    0.00391      5.87953    0.00391
  1     3      5.87953    0.00391      5.87953    0.00391
  1     4      6.84974    0.00000      6.84974    0.00000
  1     5      8.67174    0.00000      8.67174    0.00000


Input parameters:
  convergence: {bands: all}
  eigensolver: {name: cg,
                niter: 5}
  fixdensity: True
  kpts: {npoints: 50,
         path: LGXUG}
  nbands: -4
  symmetry: off

Initialize ...

Ge-setup:
  name: Germanium
  id: 9ec617d8d148b76cb5ff523bd08bd36c
  Z: 32
  valence: 4
  core: 28
  charge: 0.0
  file: /usr/share/gpaw-setups/Ge.PBE.gz
  cutoffs: 1.01(comp), 1.77(filt), 3.42(core), lmax=2
  valence states:
                energy  radius
    4s(2.00)   -11.726   1.005
    4p(2.00)    -3.896   1.005
    *s          15.485   1.005
    *p          23.315   1.005
    *d           0.000   1.005

  Using partial waves for Ge as LCAO basis

Reference energy: -114195.275705

Spin-polarized calculation.
Magnetic moment:  0.000000

Occupation numbers:
  Fixed Fermi level
  Fermi-Dirac: width=0.0200 eV

Convergence criteria:
  Maximum total energy change: 0.0005 eV / electron
  Maximum integral of absolute density change: 0.0001 electrons
  Maximum integral of absolute eigenstate change: 4e-08 eV^2
  Maximum number of iterations: 1500

Symmetries present (total): 1

  ( 1  0  0)
  ( 0  1  0)
  ( 0  0  1)

50 k-points
50 k-points in the irreducible part of the Brillouin zone
       k-points in crystal coordinates                weights
   0:     0.50000000    0.50000000    0.50000000          1/50
   1:     0.45833333    0.45833333    0.45833333          1/50
   2:     0.41666667    0.41666667    0.41666667          1/50
   3:     0.37500000    0.37500000    0.37500000          1/50
   4:     0.33333333    0.33333333    0.33333333          1/50
   5:     0.29166667    0.29166667    0.29166667          1/50
   6:     0.25000000    0.25000000    0.25000000          1/50
   7:     0.20833333    0.20833333    0.20833333          1/50
   8:     0.16666667    0.16666667    0.16666667          1/50
   9:     0.12500000    0.12500000    0.12500000          1/50
          ...
  49:     0.00000000    0.00000000    0.00000000          1/50

Wave functions: Plane wave expansion
  Cutoff energy: 400.000 eV
  Number of coefficients (min, max): 798, 869
  Using FFTW library
  Eigensolver: None  MatrixOperator buffer_size: default value or 
                              see value of nblock in input file
Diagonalizer layout: Serial LAPACKOrthonormalizer layout: Serial LAPACK 

CG(niter=5, rtol=3.0e-01) 

No density mixing

Memory estimate:
  Process memory now: 1007.50 MiB
  Calculator: 19.41 MiB
    Density: 2.49 MiB
      Arrays: 0.90 MiB
      Localized functions: 0.46 MiB
      Mixer: 1.13 MiB
    Hamiltonian: 0.68 MiB
      Arrays: 0.67 MiB
      XC: 0.00 MiB
      Poisson: 0.00 MiB
      vbar: 0.01 MiB
    Wavefunctions: 16.24 MiB
      Arrays psit_nG: 10.61 MiB
      Eigensolver: 0.17 MiB
      Projections: 0.32 MiB
      Projectors: 4.43 MiB
      Overlap op: 0.11 MiB
      PW-descriptor: 0.60 MiB

Total number of cores used: 1

Number of atoms: 2
Number of atomic orbitals: 8
Number of bands in calculation: 8
Bands to converge: all
Number of valence electrons: 8

... initialized

Initializing position-dependent things.

Creating initial wave functions:
  8 bands from LCAO basis set

                    
                    
                    
                    
           Ge       
                    
       Ge           
                    
                    
                    
                    

Positions:
   0 Ge     0.000000    0.000000    0.000000
   1 Ge     1.414375    1.414375    1.414375

Unit cell:
           periodic     x           y           z      points  spacing
  1. axis:    yes    0.000000    2.828750    2.828750    15     0.2178
  2. axis:    yes    2.828750    0.000000    2.828750    15     0.2178
  3. axis:    yes    2.828750    2.828750    0.000000    15     0.2178

  Lengths:   4.000457   4.000457   4.000457
  Angles:   60.000000  60.000000  60.000000

Effective grid spacing dv^(1/3) = 0.2376

                     log10-error:    total        iterations:
           time      wfs    density  energy       fermi  poisson  magmom
iter:   1  19:29:43  +1.29           -3.387358    3               +0.0000
iter:   2  19:29:49  +0.24           -3.427225    3               +0.0000
iter:   3  19:29:56  -0.69           -3.430615    3               +0.0000
iter:   4  19:30:01  -1.53           -3.430996    3               +0.0000
iter:   5  19:30:08  -2.34           -3.431055    3               +0.0000
iter:   6  19:30:14  -3.12           -3.431059    3               +0.0000
iter:   7  19:30:21  -3.80           -3.431060    3               +0.0000
iter:   8  19:30:27  -4.56           -3.431060    3               +0.0000
iter:   9  19:30:34  -5.23           -3.431060    3               +0.0000
iter:  10  19:30:38  -5.89           -3.431060    3               +0.0000
iter:  11  19:30:40  -6.49           -3.431060    3               +0.0000
iter:  12  19:30:42  -7.13           -3.431060    3               +0.0000
iter:  13  19:30:44  -7.67           -3.431060    3               +0.0000

Converged after 13 iterations.

Dipole moment: (-3.207668, -3.207668, -3.207668) |e|*Ang

Total magnetic moment: 0.000000
Local magnetic moments:
   0 Ge 0.000000
   1 Ge 0.000000

Energy contributions relative to reference atoms: (reference = -114195.275705)

Kinetic:        +31.898334
Potential:      -23.514861
External:        +0.000000
XC:             -11.814263
Entropy (-ST):   -0.001703
Local:           +0.000582
--------------------------
Free energy:     -3.431912
Extrapolated:    -3.431060

Spin contamination: 0.000000 electrons
Fixed Fermi level: 6.05545

Warning: Showing only first 2 kpts
                      Up                     Down
 Kpt  Band  Eigenvalues  Occupancy  Eigenvalues  Occupancy
  0     2      4.57501    0.02000      4.57501    0.02000
  0     3      4.57501    0.02000      4.57501    0.02000
  0     4      6.18477    0.00001      6.18477    0.00001
  0     5      9.72692    0.00000      9.72692    0.00000

  1     2      4.59004    0.02000      4.59004    0.02000
  1     3      4.59004    0.02000      4.59004    0.02000
  1     4      6.19935    0.00001      6.19935    0.00001
  1     5      9.73323    0.00000      9.73323    0.00000


Timing:                              incl.     excl.
-----------------------------------------------------------
Hamiltonian:                         0.953     0.001   0.0% |
 Atomic:                             0.691     0.003   0.0% |
  XC Correction:                     0.688     0.688   0.6% |
 Calculate atomic Hamiltonians:      0.026     0.026   0.0% |
 Communicate:                        0.000     0.000   0.0% |
 Initialize Hamiltonian:             0.000     0.000   0.0% |
 Poisson:                            0.000     0.000   0.0% |
 XC 3D grid:                         0.234     0.234   0.2% |
LCAO initialization:                 2.925     0.041   0.0% |
 LCAO eigensolver:                   1.426     0.020   0.0% |
  Calculate projections:             0.008     0.008   0.0% |
  DenseAtomicCorrection:             0.051     0.051   0.0% |
  Distribute overlap matrix:         0.008     0.008   0.0% |
  Orbital Layouts:                   0.075     0.075   0.1% |
  Potential matrix:                  0.194     0.194   0.2% |
  Sum over cells:                    1.071     1.071   0.9% |
 LCAO to grid:                       0.739     0.739   0.6% |
 Set positions (LCAO WFS):           0.719     0.001   0.0% |
  Basic WFS set positions:           0.002     0.002   0.0% |
  Basis functions set positions:     0.000     0.000   0.0% |
  TCI: Calculate S, T, P:            0.716     0.716   0.6% |
PWDescriptor:                        0.036     0.036   0.0% |
Redistribute:                        0.000     0.000   0.0% |
SCF-cycle:                         115.469     2.716   2.2% ||
 CG:                                58.391    54.392  44.5% |-----------------|
  CG: orthonormalize:                3.999     2.267   1.9% ||
   CG: overlap:                      0.999     0.999   0.8% |
   CG: overlap2:                     0.733     0.733   0.6% |
 Davidson:                          28.564    18.758  15.3% |-----|
  calc. matrices:                    6.798     6.798   5.6% |-|
  diagonalize:                       1.937     1.937   1.6% ||
  rotate_psi:                        1.071     1.071   0.9% |
 Density:                            3.282     0.001   0.0% |
  Atomic density matrices:           0.078     0.078   0.1% |
  Mix:                               0.301     0.301   0.2% |
  Multipole moments:                 0.002     0.002   0.0% |
  Pseudo density:                    2.900     2.709   2.2% ||
   Symmetrize density:               0.191     0.191   0.2% |
 Hamiltonian:                        7.633     0.012   0.0% |
  Atomic:                            5.790     0.019   0.0% |
   XC Correction:                    5.771     5.771   4.7% |-|
  Calculate atomic Hamiltonians:     0.182     0.182   0.1% |
  Communicate:                       0.000     0.000   0.0% |
  Poisson:                           0.005     0.005   0.0% |
  XC 3D grid:                        1.644     1.644   1.3% ||
 Orthonormalize:                     0.624     0.018   0.0% |
  Band Layouts:                      0.013     0.005   0.0% |
   Inverse Cholesky:                 0.009     0.009   0.0% |
  calc_s_matrix:                     0.053     0.053   0.0% |
  projections:                       0.491     0.491   0.4% |
  rotate_psi:                        0.049     0.049   0.0% |
 Residuals:                          3.240     3.240   2.7% ||
 Subspace diag:                     11.020     0.474   0.4% |
  Band Layouts:                      0.998     0.133   0.1% |
   Diagonalize:                      0.768     0.768   0.6% |
   Distribute results:               0.097     0.097   0.1% |
  calc_h_matrix:                     8.184     8.184   6.7% |--|
  rotate_psi:                        1.364     1.364   1.1% |
Set symmetry:                        0.162     0.162   0.1% |
Other:                               2.677     2.677   2.2% ||
-----------------------------------------------------------
Total:                                       122.223 100.0%

Date: Thu Feb 11 19:30:45 2021
element =  Ge
struct =  diamond
kpts =  (8,8,8)
element =  Ge
configuration =  [Ar] 3d10 4s2 4p2 4d0
valence =  ['4s', '4p', '4d']
occupations =  {'4s': 2, '4p': 2, '4d': 0}
nls =  4p
rNum =  600
lmax =  d
*******************************************
Starting confinement parameter optimization
Adjustable parameters and initial values:
  Ge_4d.r0 : 4.535343
  Ge_4p.r0 : 4.535343
  Ge_4s.r0 : 4.535343
  Ge_n.r0 : 6.803014
*******************************************

OPT_VAL: 4.535342702008628   4.535342702008628   4.535342702008628   6.803014053012943
VCONF:
  Ge_4d : PowerConfinement(r0=4.535343, s=2.000000)
  Ge_4p : PowerConfinement(r0=4.535343, s=2.000000)
  Ge_4s : PowerConfinement(r0=4.535343, s=2.000000)
  Ge_n : PowerConfinement(r0=6.803014, s=2.000000)
RESIDUAL: 0.0

OPT_VAL: 4.735342702008628   4.535342702008628   4.535342702008628   6.803014053012943
VCONF:
  Ge_4d : PowerConfinement(r0=4.735343, s=2.000000)
  Ge_4p : PowerConfinement(r0=4.535343, s=2.000000)
  Ge_4s : PowerConfinement(r0=4.535343, s=2.000000)
  Ge_n : PowerConfinement(r0=6.803014, s=2.000000)
RESIDUAL: 0.0

OPT_VAL: 4.535342702008628   4.735342702008628   4.535342702008628   6.803014053012943
VCONF:
  Ge_4d : PowerConfinement(r0=4.535343, s=2.000000)
  Ge_4p : PowerConfinement(r0=4.735343, s=2.000000)
  Ge_4s : PowerConfinement(r0=4.535343, s=2.000000)
  Ge_n : PowerConfinement(r0=6.803014, s=2.000000)
RESIDUAL: 0.0

OPT_VAL: 4.535342702008628   4.535342702008628   4.735342702008628   6.803014053012943
VCONF:
  Ge_4d : PowerConfinement(r0=4.535343, s=2.000000)
  Ge_4p : PowerConfinement(r0=4.535343, s=2.000000)
  Ge_4s : PowerConfinement(r0=4.735343, s=2.000000)
  Ge_n : PowerConfinement(r0=6.803014, s=2.000000)
RESIDUAL: 0.0

OPT_VAL: 4.535342702008628   4.535342702008628   4.535342702008628   7.003014053012943
VCONF:
  Ge_4d : PowerConfinement(r0=4.535343, s=2.000000)
  Ge_4p : PowerConfinement(r0=4.535343, s=2.000000)
  Ge_4s : PowerConfinement(r0=4.535343, s=2.000000)
  Ge_n : PowerConfinement(r0=7.003014, s=2.000000)
RESIDUAL: 0.0

OPT_VAL: 4.5603427020086285   4.535342702008628   4.535342702008628   6.803014053012943
VCONF:
  Ge_4d : PowerConfinement(r0=4.560343, s=2.000000)
  Ge_4p : PowerConfinement(r0=4.535343, s=2.000000)
  Ge_4s : PowerConfinement(r0=4.535343, s=2.000000)
  Ge_n : PowerConfinement(r0=6.803014, s=2.000000)
RESIDUAL: 0.0

OPT_VAL: 4.535342702008628   4.5603427020086285   4.535342702008628   6.803014053012943
VCONF:
  Ge_4d : PowerConfinement(r0=4.535343, s=2.000000)
  Ge_4p : PowerConfinement(r0=4.560343, s=2.000000)
  Ge_4s : PowerConfinement(r0=4.535343, s=2.000000)
  Ge_n : PowerConfinement(r0=6.803014, s=2.000000)
RESIDUAL: 0.0

OPT_VAL: 4.535342702008628   4.535342702008628   4.5603427020086285   6.803014053012943
VCONF:
  Ge_4d : PowerConfinement(r0=4.535343, s=2.000000)
  Ge_4p : PowerConfinement(r0=4.535343, s=2.000000)
  Ge_4s : PowerConfinement(r0=4.560343, s=2.000000)
  Ge_n : PowerConfinement(r0=6.803014, s=2.000000)
RESIDUAL: 0.0

OPT_VAL: 4.535342702008628   4.535342702008628   4.535342702008628   6.828014053012943
VCONF:
  Ge_4d : PowerConfinement(r0=4.535343, s=2.000000)
  Ge_4p : PowerConfinement(r0=4.535343, s=2.000000)
  Ge_4s : PowerConfinement(r0=4.535343, s=2.000000)
  Ge_n : PowerConfinement(r0=6.828014, s=2.000000)
RESIDUAL: 0.0

OPT_VAL: 4.540342702008628   4.535342702008628   4.535342702008628   6.803014053012943
VCONF:
  Ge_4d : PowerConfinement(r0=4.540343, s=2.000000)
  Ge_4p : PowerConfinement(r0=4.535343, s=2.000000)
  Ge_4s : PowerConfinement(r0=4.535343, s=2.000000)
  Ge_n : PowerConfinement(r0=6.803014, s=2.000000)
RESIDUAL: 0.0

OPT_VAL: 4.535342702008628   4.540342702008628   4.535342702008628   6.803014053012943
VCONF:
  Ge_4d : PowerConfinement(r0=4.535343, s=2.000000)
  Ge_4p : PowerConfinement(r0=4.540343, s=2.000000)
  Ge_4s : PowerConfinement(r0=4.535343, s=2.000000)
  Ge_n : PowerConfinement(r0=6.803014, s=2.000000)
RESIDUAL: 0.0

OPT_VAL: 4.535342702008628   4.535342702008628   4.540342702008628   6.803014053012943
VCONF:
  Ge_4d : PowerConfinement(r0=4.535343, s=2.000000)
  Ge_4p : PowerConfinement(r0=4.535343, s=2.000000)
  Ge_4s : PowerConfinement(r0=4.540343, s=2.000000)
  Ge_n : PowerConfinement(r0=6.803014, s=2.000000)
RESIDUAL: 0.0

OPT_VAL: 4.535342702008628   4.535342702008628   4.535342702008628   6.8080140530129425
VCONF:
  Ge_4d : PowerConfinement(r0=4.535343, s=2.000000)
  Ge_4p : PowerConfinement(r0=4.535343, s=2.000000)
  Ge_4s : PowerConfinement(r0=4.535343, s=2.000000)
  Ge_n : PowerConfinement(r0=6.808014, s=2.000000)
RESIDUAL: 0.0

*******************************************
Optimization finished after 13 iterations
Adjustable parameters and final values:
  Ge_4d.r0 : 4.535343
  Ge_4p.r0 : 4.535343
  Ge_4s.r0 : 4.535343
  Ge_n.r0 : 6.803014
*******************************************

VCONF:
  Ge_4d : PowerConfinement(r0=4.535343, s=2.000000)
  Ge_4p : PowerConfinement(r0=4.535343, s=2.000000)
  Ge_4s : PowerConfinement(r0=4.535343, s=2.000000)
  Ge_n : PowerConfinement(r0=6.803014, s=2.000000)
