element =  Y
struct =  hcp
nbands =  -4
path =  GMKGALHA,LM,KH
kpts =  (8,8,4)

  ___ ___ ___ _ _ _  
 |   |   |_  | | | | 
 | | | | | . | | | | 
 |__ |  _|___|_____|  1.3.1b1
 |___|_|             

User:   inukai@DESKTOP-12SE80T
Date:   Sun Feb 14 07:02:08 2021
Arch:   x86_64
Pid:    11168
Python: 3.6.9
gpaw:   /usr/lib/python3/dist-packages/gpaw
_gpaw:  /usr/lib/python3/dist-packages/_gpaw.cpython-36m-x86_64-linux-gnu.so
ase:    /home/inukai/hotcent/ase-3.19.3/ase (version 3.19.3)
numpy:  /home/inukai/.local/lib/python3.6/site-packages/numpy (version 1.19.5)
scipy:  /home/inukai/.local/lib/python3.6/site-packages/scipy (version 1.5.4)
units:  Angstrom and eV
cores:  1

Input parameters:
  kpts: [8 8 4]
  maxiter: 1500
  mixer: {backend: pulay,
          beta: 0.05,
          method: separate,
          nmaxold: 5,
          weight: 50}
  mode: {ecut: 400.0,
         name: pw}
  occupations: {name: fermi-dirac,
                width: 0.02}
  spinpol: True
  xc: PBE

System changes: positions, numbers, cell, pbc, initial_charges, initial_magmoms 

Initialize ...

Y-setup:
  name: Yttrium
  id: 5960f59baf8c0e8d097f1949c1991665
  Z: 39
  valence: 11
  core: 28
  charge: 0.0
  file: /usr/share/gpaw-setups/Y.PBE.gz
  cutoffs: 1.28(comp), 2.39(filt), 1.70(core), lmax=2
  valence states:
                energy  radius
    4s(2.00)   -47.973   1.328
    5s(2.00)    -4.101   1.328
    4p(6.00)   -27.921   1.318
    5p(0.00)    -1.441   1.318
    4d(1.00)    -2.517   1.286
    *d          24.695   1.286

  Using partial waves for Y as LCAO basis

Reference energy: -184182.767865

Spin-polarized calculation.
Magnetic moment:  0.000000

Occupation numbers:
  Fermi-Dirac: width=0.0200 eV

Convergence criteria:
  Maximum total energy change: 0.0005 eV / electron
  Maximum integral of absolute density change: 0.0001 electrons
  Maximum integral of absolute eigenstate change: 4e-08 eV^2
  Maximum number of iterations: 1500

Symmetries present (total): 12

  ( 1  1  0)  ( 1  1  0)  ( 1  0  0)  ( 1  0  0)  ( 0  1  0)  ( 0  1  0)
  ( 0 -1  0)  (-1  0  0)  ( 0  1  0)  (-1 -1  0)  ( 1  0  0)  (-1 -1  0)
  ( 0  0  1)  ( 0  0 -1)  ( 0  0  1)  ( 0  0 -1)  ( 0  0 -1)  ( 0  0  1)

  ( 0 -1  0)  ( 0 -1  0)  (-1  0  0)  (-1  0  0)  (-1 -1  0)  (-1 -1  0)
  ( 1  1  0)  (-1  0  0)  ( 1  1  0)  ( 0 -1  0)  ( 1  0  0)  ( 0  1  0)
  ( 0  0 -1)  ( 0  0  1)  ( 0  0  1)  ( 0  0 -1)  ( 0  0  1)  ( 0  0 -1)
Note: your k-points are not as symmetric as your crystal!

256 k-points: 8 x 8 x 4 Monkhorst-Pack grid
72 k-points in the irreducible part of the Brillouin zone
       k-points in crystal coordinates                weights
   0:     0.06250000   -0.06250000   -0.37500000          2/256
   1:     0.06250000   -0.06250000   -0.12500000          2/256
   2:     0.06250000   -0.06250000    0.12500000          2/256
   3:     0.06250000   -0.06250000    0.37500000          2/256
   4:     0.06250000    0.06250000    0.12500000          4/256
   5:     0.06250000    0.06250000    0.37500000          4/256
   6:     0.18750000   -0.18750000   -0.37500000          2/256
   7:     0.18750000   -0.18750000   -0.12500000          2/256
   8:     0.18750000   -0.18750000    0.12500000          2/256
   9:     0.18750000   -0.18750000    0.37500000          2/256
          ...
  71:     0.43750000    0.43750000    0.37500000          4/256

Wave functions: Plane wave expansion
  Cutoff energy: 400.000 eV
  Number of coefficients (min, max): 1171, 1212
  Using FFTW library
  Eigensolver: None  MatrixOperator buffer_size: default value or 
                              see value of nblock in input file
Diagonalizer layout: Serial LAPACKOrthonormalizer layout: Serial LAPACK 

Davidson(niter=1, smin=None, normalize=True) 

Densities:
  Coarse grid: 15*15*27 grid
  Fine grid: 30*30*54 grid
  Total Charge: 0.000000 

Density mixing:
  Method: separate
  Backend: pulay
  Linear mixing parameter: 0.05
  Mixing with 5 old densities
  Damping of long wave oscillations: 50 

Hamiltonian:
  XC and Coulomb potentials evaluated on a 30*30*54 grid
  Using the PBE Exchange-Correlation functional
 

Memory estimate:
  Process memory now: 931.41 MiB
  Calculator: 88.19 MiB
    Density: 3.43 MiB
      Arrays: 1.62 MiB
      Localized functions: 0.88 MiB
      Mixer: 0.93 MiB
    Hamiltonian: 1.22 MiB
      Arrays: 1.21 MiB
      XC: 0.00 MiB
      Poisson: 0.00 MiB
      vbar: 0.02 MiB
    Wavefunctions: 83.53 MiB
      Arrays psit_nG: 69.24 MiB
      Eigensolver: 0.68 MiB
      Projections: 2.06 MiB
      Projectors: 9.85 MiB
      Overlap op: 0.49 MiB
      PW-descriptor: 1.22 MiB

Total number of cores used: 1

Number of atoms: 2
Number of atomic orbitals: 26
Number of bands in calculation: 26
Bands to converge: occupied states only
Number of valence electrons: 22

... initialized

Initializing position-dependent things.

Density initialized from atomic densities
Creating initial wave functions:
  26 bands from LCAO basis set

                     
                     
                     
                     
        Y            
                     
                     
           Y         
                     
                     
                     
                     

Positions:
   0 Y      0.000000    2.113395    4.255491
   1 Y      1.830254    1.056698    1.418497

Unit cell:
           periodic     x           y           z      points  spacing
  1. axis:    yes    3.660508    0.000000    0.000000    15     0.2113
  2. axis:    yes   -1.830254    3.170093    0.000000    15     0.2113
  3. axis:    yes    0.000000    0.000000    5.673988    27     0.2101

  Lengths:   3.660508   3.660508   5.673988
  Angles:   90.000000  90.000000 120.000000

Effective grid spacing dv^(1/3) = 0.2213

                     log10-error:    total        iterations:
           time      wfs    density  energy       fermi  poisson  magmom
iter:   1  07:02:25  +2.02   +inf    -9.419507    3               -0.0000
iter:   2  07:02:34  -0.44   +inf    -9.453161    3               +0.0000
iter:   3  07:02:43  -1.15   +inf    -9.458642    2               -0.0000
iter:   4  07:02:53  -1.77  -1.47    -9.434533    4               -0.0000
iter:   5  07:03:04  -0.50  -1.49    -9.328708    5               +0.0000
iter:   6  07:03:14  -1.78  -2.11    -9.336710    4               -0.0000
iter:   7  07:03:24  -2.00  -2.19    -9.326498    4               -0.0000
iter:   8  07:03:35  -2.84  -2.47    -9.326307    3               -0.0000
iter:   9  07:03:45  -3.30  -2.90    -9.325966    3               -0.0000
iter:  10  07:03:55  -3.74  -3.05    -9.325928    3               -0.0000
iter:  11  07:04:06  -4.42  -3.75    -9.325918    3               -0.0000
iter:  12  07:04:16  -5.26  -3.82    -9.325919    2               -0.0000
iter:  13  07:04:26  -5.65  -3.84    -9.325922    2               -0.0000
iter:  14  07:04:36  -6.34  -3.87    -9.325920    2               -0.0000
iter:  15  07:04:47  -5.37  -3.75    -9.325919    2               -0.0000
iter:  16  07:04:57  -6.60  -4.56    -9.325919    2               +0.0000
iter:  17  07:05:07  -7.46  -4.74    -9.325919    2               +0.0000

Converged after 17 iterations.

Dipole moment: (-0.000000, -0.000000, -0.000000) |e|*Ang

Total magnetic moment: 0.000000
Local magnetic moments:
   0 Y  0.000000
   1 Y  0.000000

Energy contributions relative to reference atoms: (reference = -184182.767865)

Kinetic:         +1.178315
Potential:       +0.092635
External:        +0.000000
XC:             -10.256588
Entropy (-ST):   -0.006663
Local:           -0.336951
--------------------------
Free energy:     -9.329251
Extrapolated:    -9.325919

Spin contamination: 0.000000 electrons
Fermi level: 6.37316

Warning: Showing only first 2 kpts
                      Up                     Down
 Kpt  Band  Eigenvalues  Occupancy  Eigenvalues  Occupancy
  0     9      3.86995    0.00781      3.86995    0.00781
  0    10      7.06688    0.00000      7.06688    0.00000
  0    11      7.71603    0.00000      7.71603    0.00000
  0    12      7.90852    0.00000      7.90852    0.00000

  1     9      4.60087    0.00781      4.60087    0.00781
  1    10      7.15098    0.00000      7.15098    0.00000
  1    11      7.89485    0.00000      7.89485    0.00000
  1    12      8.14631    0.00000      8.14631    0.00000


Input parameters:
  convergence: {bands: all}
  eigensolver: {name: cg,
                niter: 5}
  fixdensity: True
  kpts: {npoints: 50,
         path: GMKGALHA,LM,KH}
  nbands: -4
  symmetry: off

Initialize ...

Y-setup:
  name: Yttrium
  id: 5960f59baf8c0e8d097f1949c1991665
  Z: 39
  valence: 11
  core: 28
  charge: 0.0
  file: /usr/share/gpaw-setups/Y.PBE.gz
  cutoffs: 1.28(comp), 2.39(filt), 1.70(core), lmax=2
  valence states:
                energy  radius
    4s(2.00)   -47.973   1.328
    5s(2.00)    -4.101   1.328
    4p(6.00)   -27.921   1.318
    5p(0.00)    -1.441   1.318
    4d(1.00)    -2.517   1.286
    *d          24.695   1.286

  Using partial waves for Y as LCAO basis

Reference energy: -184182.767865

Spin-polarized calculation.
Magnetic moment:  0.000000

Occupation numbers:
  Fixed Fermi level
  Fermi-Dirac: width=0.0200 eV

Convergence criteria:
  Maximum total energy change: 0.0005 eV / electron
  Maximum integral of absolute density change: 0.0001 electrons
  Maximum integral of absolute eigenstate change: 4e-08 eV^2
  Maximum number of iterations: 1500

Symmetries present (total): 1

  ( 1  0  0)
  ( 0  1  0)
  ( 0  0  1)

50 k-points
50 k-points in the irreducible part of the Brillouin zone
       k-points in crystal coordinates                weights
   0:     0.00000000    0.00000000    0.00000000          1/50
   1:     0.08333333    0.00000000    0.00000000          1/50
   2:     0.16666667    0.00000000    0.00000000          1/50
   3:     0.25000000    0.00000000    0.00000000          1/50
   4:     0.33333333    0.00000000    0.00000000          1/50
   5:     0.41666667    0.00000000    0.00000000          1/50
   6:     0.50000000    0.00000000    0.00000000          1/50
   7:     0.44444444    0.11111111    0.00000000          1/50
   8:     0.38888889    0.22222222    0.00000000          1/50
   9:     0.33333333    0.33333333    0.00000000          1/50
          ...
  49:     0.33333333    0.33333333    0.50000000          1/50

Wave functions: Plane wave expansion
  Cutoff energy: 400.000 eV
  Number of coefficients (min, max): 1153, 1218
  Using FFTW library
  Eigensolver: None  MatrixOperator buffer_size: default value or 
                              see value of nblock in input file
Diagonalizer layout: Serial LAPACKOrthonormalizer layout: Serial LAPACK 

CG(niter=5, rtol=3.0e-01) 

No density mixing

Memory estimate:
  Process memory now: 1101.73 MiB
  Calculator: 41.76 MiB
    Density: 3.43 MiB
      Arrays: 1.62 MiB
      Localized functions: 0.88 MiB
      Mixer: 0.93 MiB
    Hamiltonian: 1.22 MiB
      Arrays: 1.21 MiB
      XC: 0.00 MiB
      Poisson: 0.00 MiB
      vbar: 0.02 MiB
    Wavefunctions: 37.11 MiB
      Arrays psit_nG: 27.88 MiB
      Eigensolver: 0.37 MiB
      Projections: 0.82 MiB
      Projectors: 6.84 MiB
      Overlap op: 0.28 MiB
      PW-descriptor: 0.92 MiB

Total number of cores used: 1

Number of atoms: 2
Number of atomic orbitals: 26
Number of bands in calculation: 15
Bands to converge: all
Number of valence electrons: 22

... initialized

Initializing position-dependent things.

Creating initial wave functions:
  15 bands from LCAO basis set

                     
                     
                     
                     
        Y            
                     
                     
           Y         
                     
                     
                     
                     

Positions:
   0 Y      0.000000    2.113395    4.255491
   1 Y      1.830254    1.056698    1.418497

Unit cell:
           periodic     x           y           z      points  spacing
  1. axis:    yes    3.660508    0.000000    0.000000    15     0.2113
  2. axis:    yes   -1.830254    3.170093    0.000000    15     0.2113
  3. axis:    yes    0.000000    0.000000    5.673988    27     0.2101

  Lengths:   3.660508   3.660508   5.673988
  Angles:   90.000000  90.000000 120.000000

Effective grid spacing dv^(1/3) = 0.2213

                     log10-error:    total        iterations:
           time      wfs    density  energy       fermi  poisson  magmom
iter:   1  07:05:24  +0.61           -9.632896    39              +0.0000
iter:   2  07:05:38  -0.41           -9.665109    41              +0.0000
iter:   3  07:05:53  -1.23           -9.669441    41              +0.0000
iter:   4  07:06:09  -2.08           -9.670059    41              +0.0000
iter:   5  07:06:27  -2.83           -9.670197    40              +0.0000
iter:   6  07:06:44  -3.64           -9.670217    42              +0.0000
iter:   7  07:07:02  -4.28           -9.670221    41              +0.0000
iter:   8  07:07:20  -5.02           -9.670222    41              +0.0000
iter:   9  07:07:34  -5.66           -9.670222    39              +0.0000
iter:  10  07:07:43  -6.26           -9.670222    40              +0.0000
iter:  11  07:07:50  -6.72           -9.670222    40              +0.0000
iter:  12  07:07:56  -7.01           -9.670222    40              +0.0000
iter:  13  07:08:01  -7.95           -9.670222    40              +0.0000

Converged after 13 iterations.

Dipole moment: (-0.000000, -0.000000, -0.000000) |e|*Ang

Total magnetic moment: 0.000000
Local magnetic moments:
   0 Y  0.000000
   1 Y  0.000000

Energy contributions relative to reference atoms: (reference = -184182.767865)

Kinetic:         +0.835037
Potential:       +0.092626
External:        +0.000000
XC:             -10.256593
Entropy (-ST):   -0.008692
Local:           -0.336946
--------------------------
Free energy:     -9.674568
Extrapolated:    -9.670222

Spin contamination: 0.000000 electrons
Fixed Fermi level: 6.37316

Warning: Showing only first 2 kpts
                      Up                     Down
 Kpt  Band  Eigenvalues  Occupancy  Eigenvalues  Occupancy
  0     9      4.59621    0.02000      4.59621    0.02000
  0    10      7.34335    0.00000      7.34335    0.00000
  0    11      8.14316    0.00000      8.14316    0.00000
  0    12      8.14813    0.00000      8.14813    0.00000

  1     9      4.73013    0.02000      4.73013    0.02000
  1    10      7.18919    0.00000      7.18919    0.00000
  1    11      7.79993    0.00000      7.79993    0.00000
  1    12      8.27932    0.00000      8.27932    0.00000


Timing:                              incl.     excl.
-----------------------------------------------------------
Hamiltonian:                         1.213     0.002   0.0% |
 Atomic:                             0.791     0.003   0.0% |
  XC Correction:                     0.788     0.788   0.2% |
 Calculate atomic Hamiltonians:      0.034     0.034   0.0% |
 Communicate:                        0.000     0.000   0.0% |
 Initialize Hamiltonian:             0.000     0.000   0.0% |
 Poisson:                            0.001     0.001   0.0% |
 XC 3D grid:                         0.386     0.386   0.1% |
LCAO initialization:                 8.999     0.216   0.1% |
 LCAO eigensolver:                   2.550     0.025   0.0% |
  Calculate projections:             0.019     0.019   0.0% |
  DenseAtomicCorrection:             0.069     0.069   0.0% |
  Distribute overlap matrix:         0.011     0.011   0.0% |
  Orbital Layouts:                   0.428     0.428   0.1% |
  Potential matrix:                  0.865     0.865   0.2% |
  Sum over cells:                    1.133     1.133   0.3% |
 LCAO to grid:                       5.331     5.331   1.5% ||
 Set positions (LCAO WFS):           0.903     0.004   0.0% |
  Basic WFS set positions:           0.001     0.001   0.0% |
  Basis functions set positions:     0.000     0.000   0.0% |
  TCI: Calculate S, T, P:            0.897     0.897   0.3% |
PWDescriptor:                        0.062     0.062   0.0% |
Redistribute:                        0.000     0.000   0.0% |
SCF-cycle:                         340.861     7.287   2.1% ||
 CG:                               145.903   134.876  38.0% |--------------|
  CG: orthonormalize:               11.026     5.616   1.6% ||
   CG: overlap:                      3.583     3.583   1.0% |
   CG: overlap2:                     1.827     1.827   0.5% |
 Davidson:                         105.727    45.585  12.8% |----|
  calc. matrices:                   41.711    41.711  11.8% |----|
  diagonalize:                      15.949    15.949   4.5% |-|
  rotate_psi:                        2.482     2.482   0.7% |
 Density:                           11.525     0.001   0.0% |
  Atomic density matrices:           0.086     0.086   0.0% |
  Mix:                               0.350     0.350   0.1% |
  Multipole moments:                 0.002     0.002   0.0% |
  Pseudo density:                   11.086    10.956   3.1% ||
   Symmetrize density:               0.130     0.130   0.0% |
 Hamiltonian:                        8.705     0.030   0.0% |
  Atomic:                            6.126     0.021   0.0% |
   XC Correction:                    6.105     6.105   1.7% ||
  Calculate atomic Hamiltonians:     0.227     0.227   0.1% |
  Communicate:                       0.000     0.000   0.0% |
  Poisson:                           0.006     0.006   0.0% |
  XC 3D grid:                        2.315     2.315   0.7% |
 Orthonormalize:                     0.995     0.022   0.0% |
  Band Layouts:                      0.029     0.005   0.0% |
   Inverse Cholesky:                 0.024     0.024   0.0% |
  calc_s_matrix:                     0.145     0.145   0.0% |
  projections:                       0.671     0.671   0.2% |
  rotate_psi:                        0.127     0.127   0.0% |
 Residuals:                          4.228     4.228   1.2% |
 Subspace diag:                     56.492     0.564   0.2% |
  Band Layouts:                      4.095     0.156   0.0% |
   Diagonalize:                      3.821     3.821   1.1% |
   Distribute results:               0.119     0.119   0.0% |
  calc_h_matrix:                    48.677    48.677  13.7% |----|
  rotate_psi:                        3.156     3.156   0.9% |
Set symmetry:                        0.021     0.021   0.0% |
Other:                               3.627     3.627   1.0% |
-----------------------------------------------------------
Total:                                       354.784 100.0%

Date: Sun Feb 14 07:08:02 2021
element =  Y
struct =  hcp
kpts =  (8,8,4)
element =  Y
configuration =  [Kr] 4d1 5s2 5p0
valence =  ['4d', '5s', '5p']
occupations =  {'4d': 1, '5s': 2}
nls =  4d
rNum =  600
lmax =  d
*******************************************
Starting confinement parameter optimization
Adjustable parameters and initial values:
  Y_4d.r0 : 7.180959
  Y_5p.r0 : 7.180959
  Y_5s.r0 : 7.180959
  Y_n.r0 : 10.771439
*******************************************

OPT_VAL: 7.180959278180327   7.180959278180327   7.180959278180327   10.77143891727049
VCONF:
  Y_4d : PowerConfinement(r0=7.180959, s=2.000000)
  Y_5p : PowerConfinement(r0=7.180959, s=2.000000)
  Y_5s : PowerConfinement(r0=7.180959, s=2.000000)
  Y_n : PowerConfinement(r0=10.771439, s=2.000000)
RESIDUAL: 0.0

OPT_VAL: 7.3809592781803275   7.180959278180327   7.180959278180327   10.77143891727049
VCONF:
  Y_4d : PowerConfinement(r0=7.380959, s=2.000000)
  Y_5p : PowerConfinement(r0=7.180959, s=2.000000)
  Y_5s : PowerConfinement(r0=7.180959, s=2.000000)
  Y_n : PowerConfinement(r0=10.771439, s=2.000000)
RESIDUAL: 0.0

OPT_VAL: 7.180959278180327   7.3809592781803275   7.180959278180327   10.77143891727049
VCONF:
  Y_4d : PowerConfinement(r0=7.180959, s=2.000000)
  Y_5p : PowerConfinement(r0=7.380959, s=2.000000)
  Y_5s : PowerConfinement(r0=7.180959, s=2.000000)
  Y_n : PowerConfinement(r0=10.771439, s=2.000000)
RESIDUAL: 0.0

OPT_VAL: 7.180959278180327   7.180959278180327   7.3809592781803275   10.77143891727049
VCONF:
  Y_4d : PowerConfinement(r0=7.180959, s=2.000000)
  Y_5p : PowerConfinement(r0=7.180959, s=2.000000)
  Y_5s : PowerConfinement(r0=7.380959, s=2.000000)
  Y_n : PowerConfinement(r0=10.771439, s=2.000000)
RESIDUAL: 0.0

OPT_VAL: 7.180959278180327   7.180959278180327   7.180959278180327   10.97143891727049
VCONF:
  Y_4d : PowerConfinement(r0=7.180959, s=2.000000)
  Y_5p : PowerConfinement(r0=7.180959, s=2.000000)
  Y_5s : PowerConfinement(r0=7.180959, s=2.000000)
  Y_n : PowerConfinement(r0=10.971439, s=2.000000)
RESIDUAL: 0.0

OPT_VAL: 7.205959278180328   7.180959278180327   7.180959278180327   10.77143891727049
VCONF:
  Y_4d : PowerConfinement(r0=7.205959, s=2.000000)
  Y_5p : PowerConfinement(r0=7.180959, s=2.000000)
  Y_5s : PowerConfinement(r0=7.180959, s=2.000000)
  Y_n : PowerConfinement(r0=10.771439, s=2.000000)
RESIDUAL: 0.0

OPT_VAL: 7.180959278180327   7.205959278180328   7.180959278180327   10.77143891727049
VCONF:
  Y_4d : PowerConfinement(r0=7.180959, s=2.000000)
  Y_5p : PowerConfinement(r0=7.205959, s=2.000000)
  Y_5s : PowerConfinement(r0=7.180959, s=2.000000)
  Y_n : PowerConfinement(r0=10.771439, s=2.000000)
RESIDUAL: 0.0

OPT_VAL: 7.180959278180327   7.180959278180327   7.205959278180328   10.77143891727049
VCONF:
  Y_4d : PowerConfinement(r0=7.180959, s=2.000000)
  Y_5p : PowerConfinement(r0=7.180959, s=2.000000)
  Y_5s : PowerConfinement(r0=7.205959, s=2.000000)
  Y_n : PowerConfinement(r0=10.771439, s=2.000000)
RESIDUAL: 0.0

OPT_VAL: 7.180959278180327   7.180959278180327   7.180959278180327   10.79643891727049
VCONF:
  Y_4d : PowerConfinement(r0=7.180959, s=2.000000)
  Y_5p : PowerConfinement(r0=7.180959, s=2.000000)
  Y_5s : PowerConfinement(r0=7.180959, s=2.000000)
  Y_n : PowerConfinement(r0=10.796439, s=2.000000)
RESIDUAL: 0.0

OPT_VAL: 7.185959278180327   7.180959278180327   7.180959278180327   10.77143891727049
VCONF:
  Y_4d : PowerConfinement(r0=7.185959, s=2.000000)
  Y_5p : PowerConfinement(r0=7.180959, s=2.000000)
  Y_5s : PowerConfinement(r0=7.180959, s=2.000000)
  Y_n : PowerConfinement(r0=10.771439, s=2.000000)
RESIDUAL: 0.0

OPT_VAL: 7.180959278180327   7.185959278180327   7.180959278180327   10.77143891727049
VCONF:
  Y_4d : PowerConfinement(r0=7.180959, s=2.000000)
  Y_5p : PowerConfinement(r0=7.185959, s=2.000000)
  Y_5s : PowerConfinement(r0=7.180959, s=2.000000)
  Y_n : PowerConfinement(r0=10.771439, s=2.000000)
RESIDUAL: 0.0

OPT_VAL: 7.180959278180327   7.180959278180327   7.185959278180327   10.77143891727049
VCONF:
  Y_4d : PowerConfinement(r0=7.180959, s=2.000000)
  Y_5p : PowerConfinement(r0=7.180959, s=2.000000)
  Y_5s : PowerConfinement(r0=7.185959, s=2.000000)
  Y_n : PowerConfinement(r0=10.771439, s=2.000000)
RESIDUAL: 0.0

OPT_VAL: 7.180959278180327   7.180959278180327   7.180959278180327   10.776438917270491
VCONF:
  Y_4d : PowerConfinement(r0=7.180959, s=2.000000)
  Y_5p : PowerConfinement(r0=7.180959, s=2.000000)
  Y_5s : PowerConfinement(r0=7.180959, s=2.000000)
  Y_n : PowerConfinement(r0=10.776439, s=2.000000)
RESIDUAL: 0.0

*******************************************
Optimization finished after 13 iterations
Adjustable parameters and final values:
  Y_4d.r0 : 7.180959
  Y_5p.r0 : 7.180959
  Y_5s.r0 : 7.180959
  Y_n.r0 : 10.771439
*******************************************

VCONF:
  Y_4d : PowerConfinement(r0=7.180959, s=2.000000)
  Y_5p : PowerConfinement(r0=7.180959, s=2.000000)
  Y_5s : PowerConfinement(r0=7.180959, s=2.000000)
  Y_n : PowerConfinement(r0=10.771439, s=2.000000)
