element =  Al
struct =  fcc
nbands =  -4
path =  WLGXWK
kpts =  (8,8,8)

  ___ ___ ___ _ _ _  
 |   |   |_  | | | | 
 | | | | | . | | | | 
 |__ |  _|___|_____|  1.3.1b1
 |___|_|             

User:   inukai@DESKTOP-12SE80T
Date:   Tue Feb  2 19:24:11 2021
Arch:   x86_64
Pid:    77
Python: 3.6.9
gpaw:   /usr/lib/python3/dist-packages/gpaw
_gpaw:  /usr/lib/python3/dist-packages/_gpaw.cpython-36m-x86_64-linux-gnu.so
ase:    /home/inukai/hotcent/ase-3.19.3/ase (version 3.19.3)
numpy:  /home/inukai/.local/lib/python3.6/site-packages/numpy (version 1.19.5)
scipy:  /home/inukai/.local/lib/python3.6/site-packages/scipy (version 1.5.4)
units:  Angstrom and eV
cores:  1

Input parameters:
  kpts: [8 8 8]
  maxiter: 200
  mixer: {backend: pulay,
          beta: 0.05,
          method: separate,
          nmaxold: 8,
          weight: 100}
  mode: {ecut: 400.0,
         name: pw}
  occupations: {name: fermi-dirac,
                width: 0.02}
  spinpol: False
  xc: PBE

System changes: positions, numbers, cell, pbc, initial_charges, initial_magmoms 

Initialize ...

Al-setup:
  name: Aluminium
  id: 0292cae29f5d6237e50f6abdd43a7bdd
  Z: 13
  valence: 3
  core: 10
  charge: 0.0
  file: /usr/share/gpaw-setups/Al.PBE.gz
  cutoffs: 1.08(comp), 1.91(filt), 2.36(core), lmax=2
  valence states:
                energy  radius
    3s(2.00)    -7.753   1.085
    3p(1.00)    -2.712   1.085
    *s          19.459   1.085
    *p          24.499   1.085
    *d           0.000   1.085

  Using partial waves for Al as LCAO basis

Reference energy: -6603.423265

Spin-paired calculation

Occupation numbers:
  Fermi-Dirac: width=0.0200 eV

Convergence criteria:
  Maximum total energy change: 0.0005 eV / electron
  Maximum integral of absolute density change: 0.0001 electrons
  Maximum integral of absolute eigenstate change: 4e-08 eV^2
  Maximum number of iterations: 200

Symmetries present (total): 48

  ( 1  0  0)  ( 1  0  0)  ( 1  0  0)  ( 1  0  0)  ( 1  0 -1)  ( 1  0 -1)
  ( 1  0 -1)  ( 1 -1  0)  ( 0  1  0)  ( 0  0  1)  ( 1  0  0)  ( 1 -1  0)
  ( 1 -1  0)  ( 1  0 -1)  ( 0  0  1)  ( 0  1  0)  ( 1 -1  0)  ( 1  0  0)

  ( 1  0 -1)  ( 1  0 -1)  ( 1 -1  0)  ( 1 -1  0)  ( 1 -1  0)  ( 1 -1  0)
  ( 0  1 -1)  ( 0  0 -1)  ( 1  0  0)  ( 1  0 -1)  ( 0 -1  1)  ( 0 -1  0)
  ( 0  0 -1)  ( 0  1 -1)  ( 1  0 -1)  ( 1  0  0)  ( 0 -1  0)  ( 0 -1  1)

  ( 0  1  0)  ( 0  1  0)  ( 0  1  0)  ( 0  1  0)  ( 0  1 -1)  ( 0  1 -1)
  ( 1  0  0)  ( 0  1 -1)  ( 0  0  1)  (-1  1  0)  ( 1  0 -1)  ( 0  1  0)
  ( 0  0  1)  (-1  1  0)  ( 1  0  0)  ( 0  1 -1)  ( 0  0 -1)  (-1  1  0)

  ( 0  1 -1)  ( 0  1 -1)  ( 0  0  1)  ( 0  0  1)  ( 0  0  1)  ( 0  0  1)
  ( 0  0 -1)  (-1  1  0)  ( 1  0  0)  ( 0  1  0)  ( 0 -1  1)  (-1  0  1)
  ( 1  0 -1)  ( 0  1  0)  ( 0  1  0)  ( 1  0  0)  (-1  0  1)  ( 0 -1  1)

  ( 0  0 -1)  ( 0  0 -1)  ( 0  0 -1)  ( 0  0 -1)  ( 0 -1  1)  ( 0 -1  1)
  ( 1  0 -1)  ( 0  1 -1)  ( 0 -1  0)  (-1  0  0)  ( 1 -1  0)  ( 0  0  1)
  ( 0  1 -1)  ( 1  0 -1)  (-1  0  0)  ( 0 -1  0)  ( 0 -1  0)  (-1  0  1)

  ( 0 -1  1)  ( 0 -1  1)  ( 0 -1  0)  ( 0 -1  0)  ( 0 -1  0)  ( 0 -1  0)
  ( 0 -1  0)  (-1  0  1)  ( 1 -1  0)  ( 0  0 -1)  ( 0 -1  1)  (-1  0  0)
  ( 1 -1  0)  ( 0  0  1)  ( 0 -1  1)  (-1  0  0)  ( 1 -1  0)  ( 0  0 -1)

  (-1  1  0)  (-1  1  0)  (-1  1  0)  (-1  1  0)  (-1  0  1)  (-1  0  1)
  ( 0  1  0)  ( 0  1 -1)  (-1  0  1)  (-1  0  0)  ( 0  0  1)  ( 0 -1  1)
  ( 0  1 -1)  ( 0  1  0)  (-1  0  0)  (-1  0  1)  ( 0 -1  1)  ( 0  0  1)

  (-1  0  1)  (-1  0  1)  (-1  0  0)  (-1  0  0)  (-1  0  0)  (-1  0  0)
  (-1  1  0)  (-1  0  0)  ( 0  0 -1)  ( 0 -1  0)  (-1  1  0)  (-1  0  1)
  (-1  0  0)  (-1  1  0)  ( 0 -1  0)  ( 0  0 -1)  (-1  0  1)  (-1  1  0)
Note: your k-points are not as symmetric as your crystal!

512 k-points: 8 x 8 x 8 Monkhorst-Pack grid
60 k-points in the irreducible part of the Brillouin zone
       k-points in crystal coordinates                weights
   0:     0.06250000    0.06250000   -0.06250000          6/512
   1:     0.06250000    0.06250000    0.06250000          2/512
   2:     0.18750000   -0.06250000   -0.06250000          6/512
   3:     0.18750000    0.06250000   -0.18750000         12/512
   4:     0.18750000    0.06250000   -0.06250000         12/512
   5:     0.18750000    0.06250000    0.06250000          6/512
   6:     0.18750000    0.18750000   -0.18750000          6/512
   7:     0.18750000    0.18750000   -0.06250000          6/512
   8:     0.18750000    0.18750000    0.06250000          6/512
   9:     0.18750000    0.18750000    0.18750000          2/512
          ...
  59:     0.43750000    0.43750000    0.43750000          2/512

Wave functions: Plane wave expansion
  Cutoff energy: 400.000 eV
  Number of coefficients (min, max): 296, 311
  Using FFTW library
  Eigensolver: None  MatrixOperator buffer_size: default value or 
                              see value of nblock in input file
Diagonalizer layout: Serial LAPACKOrthonormalizer layout: Serial LAPACK 

Davidson(niter=1, smin=None, normalize=True) 

Densities:
  Coarse grid: 12*12*12 grid
  Fine grid: 24*24*24 grid
  Total Charge: 0.000000 

Density mixing:
  Method: separate
  Backend: pulay
  Linear mixing parameter: 0.05
  Mixing with 8 old densities
  Damping of long wave oscillations: 100 

Hamiltonian:
  XC and Coulomb potentials evaluated on a 24*24*24 grid
  Using the PBE Exchange-Correlation functional
 

Memory estimate:
  Process memory now: 922.27 MiB
  Calculator: 4.48 MiB
    Density: 0.79 MiB
      Arrays: 0.34 MiB
      Localized functions: 0.23 MiB
      Mixer: 0.21 MiB
    Hamiltonian: 0.23 MiB
      Arrays: 0.22 MiB
      XC: 0.00 MiB
      Poisson: 0.00 MiB
      vbar: 0.00 MiB
    Wavefunctions: 3.46 MiB
      Arrays psit_nG: 1.14 MiB
      Eigensolver: 0.05 MiB
      Projections: 0.05 MiB
      Projectors: 1.93 MiB
      Overlap op: 0.02 MiB
      PW-descriptor: 0.27 MiB

Total number of cores used: 1

Number of atoms: 1
Number of atomic orbitals: 4
Number of bands in calculation: 4
Bands to converge: occupied states only
Number of valence electrons: 3

... initialized

Initializing position-dependent things.

Density initialized from atomic densities
Creating initial wave functions:
  4 bands from LCAO basis set

                
                
                
       Al       
                
                
                
                

Positions:
   0 Al     0.000000    0.000000    0.000000

Unit cell:
           periodic     x           y           z      points  spacing
  1. axis:    yes    0.000000    2.025000    2.025000    12     0.1949
  2. axis:    yes    2.025000    0.000000    2.025000    12     0.1949
  3. axis:    yes    2.025000    2.025000    0.000000    12     0.1949

  Lengths:   2.863782   2.863782   2.863782
  Angles:   60.000000  60.000000  60.000000

Effective grid spacing dv^(1/3) = 0.2126

                     log10-error:    total        iterations:
           time      wfs    density  energy       fermi  poisson
iter:   1  19:24:14  +1.61   +inf    -3.713202    4             
iter:   2  19:24:14  -0.24   +inf    -3.740127    4             
iter:   3  19:24:14  -1.71   +inf    -3.741445    3             
iter:   4  19:24:15  -2.62  -0.93    -3.741321    3             
iter:   5  19:24:16  -1.72  -0.95    -3.740589    4             
iter:   6  19:24:16  -2.99  -2.40    -3.740677    2             
iter:   7  19:24:17  -3.08  -2.44    -3.740840    3             
iter:   8  19:24:17  -3.73  -1.98    -3.740742    3             
iter:   9  19:24:18  -4.94  -3.09    -3.740740    2             
iter:  10  19:24:18  -6.04  -3.21    -3.740740    2             
iter:  11  19:24:19  -5.66  -3.08    -3.740741    2             
iter:  12  19:24:20  -6.53  -4.25    -3.740741    2             
iter:  13  19:24:20  -7.87  -4.53    -3.740741    2             

Converged after 13 iterations.

Dipole moment: (-0.000000, -0.000000, -0.000000) |e|*Ang

Energy contributions relative to reference atoms: (reference = -6603.423265)

Kinetic:         +3.381957
Potential:       -1.539486
External:        +0.000000
XC:              -5.577265
Entropy (-ST):   -0.000496
Local:           -0.005699
--------------------------
Free energy:     -3.740989
Extrapolated:    -3.740741

Fermi level: 7.07105

Warning: Showing only first 2 kpts
 Kpt  Band  Eigenvalues  Occupancy
  0     0     -3.60900    0.02344
  0     1     16.25915    0.00000
  0     2     17.76717    0.00000

  1     0     -3.89068    0.00781
  1     1     17.89828    0.00000
  1     2     19.36142    0.00000


Input parameters:
  convergence: {bands: all}
  eigensolver: {name: cg,
                niter: 5}
  fixdensity: True
  kpts: {npoints: 50,
         path: WLGXWK}
  nbands: -4
  symmetry: off

Initialize ...

Al-setup:
  name: Aluminium
  id: 0292cae29f5d6237e50f6abdd43a7bdd
  Z: 13
  valence: 3
  core: 10
  charge: 0.0
  file: /usr/share/gpaw-setups/Al.PBE.gz
  cutoffs: 1.08(comp), 1.91(filt), 2.36(core), lmax=2
  valence states:
                energy  radius
    3s(2.00)    -7.753   1.085
    3p(1.00)    -2.712   1.085
    *s          19.459   1.085
    *p          24.499   1.085
    *d           0.000   1.085

  Using partial waves for Al as LCAO basis

Reference energy: -6603.423265

Spin-paired calculation

Occupation numbers:
  Fixed Fermi level
  Fermi-Dirac: width=0.0200 eV

Convergence criteria:
  Maximum total energy change: 0.0005 eV / electron
  Maximum integral of absolute density change: 0.0001 electrons
  Maximum integral of absolute eigenstate change: 4e-08 eV^2
  Maximum number of iterations: 200

Symmetries present (total): 1

  ( 1  0  0)
  ( 0  1  0)
  ( 0  0  1)

50 k-points
50 k-points in the irreducible part of the Brillouin zone
       k-points in crystal coordinates                weights
   0:     0.50000000    0.25000000    0.75000000          1/50
   1:     0.50000000    0.27777778    0.72222222          1/50
   2:     0.50000000    0.30555556    0.69444444          1/50
   3:     0.50000000    0.33333333    0.66666667          1/50
   4:     0.50000000    0.36111111    0.63888889          1/50
   5:     0.50000000    0.38888889    0.61111111          1/50
   6:     0.50000000    0.41666667    0.58333333          1/50
   7:     0.50000000    0.44444444    0.55555556          1/50
   8:     0.50000000    0.47222222    0.52777778          1/50
   9:     0.50000000    0.50000000    0.50000000          1/50
          ...
  49:     0.37500000    0.37500000    0.75000000          1/50

Wave functions: Plane wave expansion
  Cutoff energy: 400.000 eV
  Number of coefficients (min, max): 294, 313
  Using FFTW library
  Eigensolver: None  MatrixOperator buffer_size: default value or 
                              see value of nblock in input file
Diagonalizer layout: Serial LAPACKOrthonormalizer layout: Serial LAPACK 

CG(niter=5, rtol=3.0e-01) 

No density mixing

Memory estimate:
  Process memory now: 974.80 MiB
  Calculator: 4.19 MiB
    Density: 0.79 MiB
      Arrays: 0.34 MiB
      Localized functions: 0.23 MiB
      Mixer: 0.21 MiB
    Hamiltonian: 0.23 MiB
      Arrays: 0.22 MiB
      XC: 0.00 MiB
      Poisson: 0.00 MiB
      vbar: 0.00 MiB
    Wavefunctions: 3.17 MiB
      Arrays psit_nG: 1.19 MiB
      Eigensolver: 0.05 MiB
      Projections: 0.05 MiB
      Projectors: 1.62 MiB
      Overlap op: 0.02 MiB
      PW-descriptor: 0.24 MiB

Total number of cores used: 1

Number of atoms: 1
Number of atomic orbitals: 4
Number of bands in calculation: 5
Bands to converge: all
Number of valence electrons: 3

... initialized

Initializing position-dependent things.

Creating initial wave functions:
  4 bands from LCAO basis set
  1 band from random numbers

                
                
                
       Al       
                
                
                
                

Positions:
   0 Al     0.000000    0.000000    0.000000

Unit cell:
           periodic     x           y           z      points  spacing
  1. axis:    yes    0.000000    2.025000    2.025000    12     0.1949
  2. axis:    yes    2.025000    0.000000    2.025000    12     0.1949
  3. axis:    yes    2.025000    2.025000    0.000000    12     0.1949

  Lengths:   2.863782   2.863782   2.863782
  Angles:   60.000000  60.000000  60.000000

Effective grid spacing dv^(1/3) = 0.2126

                     log10-error:    total        iterations:
           time      wfs    density  energy       fermi  poisson
iter:   1  19:24:24  +3.77           -3.733708    29            
iter:   2  19:24:25  +2.81           -3.860099    31            
iter:   3  19:24:26  +1.79           -3.871484    26            
iter:   4  19:24:27  +0.84           -3.871773    30            
iter:   5  19:24:28  +0.33           -3.871797    31            
iter:   6  19:24:29  -0.59           -3.871800    31            
iter:   7  19:24:30  -0.81           -3.871801    29            
iter:   8  19:24:31  -1.46           -3.871801    30            
iter:   9  19:24:32  -0.80           -3.871801    31            
iter:  10  19:24:33  -0.75           -3.871801    31            
iter:  11  19:24:34  -2.46           -3.871801    31            
iter:  12  19:24:35  -3.10           -3.871801    31            
iter:  13  19:24:35  -4.31           -3.871801    31            
iter:  14  19:24:36  -3.71           -3.871801    31            
iter:  15  19:24:36  -5.08           -3.871801    31            
iter:  16  19:24:37  -4.54           -3.871801    31            
iter:  17  19:24:37  -5.26           -3.871801    31            
iter:  18  19:24:37  -4.56           -3.871801    31            
iter:  19  19:24:38  -6.06           -3.871801    31            
iter:  20  19:24:38  -5.44           -3.871801    31            
iter:  21  19:24:39  -6.14           -3.871801    31            
iter:  22  19:24:39  -5.35           -3.871801    31            
iter:  23  19:24:39  -6.91           -3.871801    31            
iter:  24  19:24:40  -6.44           -3.871801    31            
iter:  25  19:24:40  -7.00           -3.871801    31            
iter:  26  19:24:40  -6.25           -3.871801    31            
iter:  27  19:24:41  -7.71           -3.871801    31            

Converged after 27 iterations.

Dipole moment: (-0.000000, -0.000000, -0.000000) |e|*Ang

Energy contributions relative to reference atoms: (reference = -6603.423265)

Kinetic:         +3.251406
Potential:       -1.539485
External:        +0.000000
XC:              -5.577260
Entropy (-ST):   -0.001523
Local:           -0.005700
--------------------------
Free energy:     -3.872562
Extrapolated:    -3.871801

Fixed Fermi level: 7.07105

Warning: Showing only first 2 kpts
 Kpt  Band  Eigenvalues  Occupancy
  0     0      6.25743    0.03691
  0     1      6.25745    0.03690
  0     2      7.27612    0.00000

  1     0      5.75105    0.04000
  1     1      5.90951    0.04000
  1     2      7.88668    0.00000


Timing:                              incl.     excl.
-----------------------------------------------------------
Hamiltonian:                         0.341     0.001   0.0% |
 Atomic:                             0.278     0.003   0.0% |
  XC Correction:                     0.275     0.275   0.9% |
 Calculate atomic Hamiltonians:      0.005     0.005   0.0% |
 Communicate:                        0.000     0.000   0.0% |
 Initialize Hamiltonian:             0.000     0.000   0.0% |
 Poisson:                            0.000     0.000   0.0% |
 XC 3D grid:                         0.056     0.056   0.2% |
LCAO initialization:                 1.721     0.102   0.3% |
 LCAO eigensolver:                   0.645     0.010   0.0% |
  Calculate projections:             0.003     0.003   0.0% |
  DenseAtomicCorrection:             0.017     0.017   0.1% |
  Distribute overlap matrix:         0.004     0.004   0.0% |
  Orbital Layouts:                   0.018     0.018   0.1% |
  Potential matrix:                  0.055     0.055   0.2% |
  Sum over cells:                    0.539     0.539   1.8% ||
 LCAO to grid:                       0.351     0.351   1.1% |
 Set positions (LCAO WFS):           0.623     0.001   0.0% |
  Basic WFS set positions:           0.005     0.005   0.0% |
  Basis functions set positions:     0.000     0.000   0.0% |
  TCI: Calculate S, T, P:            0.617     0.617   2.0% ||
PWDescriptor:                        0.017     0.017   0.1% |
Redistribute:                        0.000     0.000   0.0% |
SCF-cycle:                          26.172     6.642  21.8% |--------|
 CG:                                10.442     9.168  30.0% |-----------|
  CG: orthonormalize:                1.275     0.752   2.5% ||
   CG: overlap:                      0.313     0.313   1.0% |
   CG: overlap2:                     0.210     0.210   0.7% |
 Davidson:                           3.194     1.936   6.3% |--|
  calc. matrices:                    0.821     0.821   2.7% ||
  diagonalize:                       0.275     0.275   0.9% |
  rotate_psi:                        0.163     0.163   0.5% |
 Density:                            0.639     0.001   0.0% |
  Atomic density matrices:           0.046     0.046   0.2% |
  Mix:                               0.044     0.044   0.1% |
  Multipole moments:                 0.002     0.002   0.0% |
  Pseudo density:                    0.547     0.416   1.4% ||
   Symmetrize density:               0.131     0.131   0.4% |
 Hamiltonian:                        1.474     0.006   0.0% |
  Atomic:                            1.207     0.013   0.0% |
   XC Correction:                    1.194     1.194   3.9% |-|
  Calculate atomic Hamiltonians:     0.024     0.024   0.1% |
  Communicate:                       0.000     0.000   0.0% |
  Poisson:                           0.002     0.002   0.0% |
  XC 3D grid:                        0.235     0.235   0.8% |
 Orthonormalize:                     0.089     0.007   0.0% |
  Band Layouts:                      0.005     0.002   0.0% |
   Inverse Cholesky:                 0.003     0.003   0.0% |
  calc_s_matrix:                     0.013     0.013   0.0% |
  projections:                       0.052     0.052   0.2% |
  rotate_psi:                        0.011     0.011   0.0% |
 Residuals:                          0.894     0.894   2.9% ||
 Subspace diag:                      2.799     0.238   0.8% |
  Band Layouts:                      0.329     0.069   0.2% |
   Diagonalize:                      0.209     0.209   0.7% |
   Distribute results:               0.050     0.050   0.2% |
  calc_h_matrix:                     1.831     1.831   6.0% |-|
  rotate_psi:                        0.401     0.401   1.3% ||
Set symmetry:                        0.156     0.156   0.5% |
Other:                               2.127     2.127   7.0% |--|
-----------------------------------------------------------
Total:                                        30.535 100.0%

Date: Tue Feb  2 19:24:42 2021
element =  Al
struct =  fcc
kpts =  (8,8,8)
element =  Al
configuration =  [Ne] 3s2 3p1 3d0
valence =  ['3s', '3p', '3d']
occupations =  {'3s': 2, '3p': 1, '3d': 0}
nls =  3p
rNum =  600
lmax =  d
*******************************************
Starting confinement parameter optimization
Adjustable parameters and initial values:
  Al_3d.r0 : 4.573137
  Al_3p.r0 : 4.573137
  Al_3s.r0 : 4.573137
  Al_n.r0 : 6.859706
*******************************************

OPT_VAL: 4.573137224525366   4.573137224525366   4.573137224525366   6.8597058367880495
VCONF:
  Al_3d : PowerConfinement(r0=4.573137, s=2.000000)
  Al_3p : PowerConfinement(r0=4.573137, s=2.000000)
  Al_3s : PowerConfinement(r0=4.573137, s=2.000000)
  Al_n : PowerConfinement(r0=6.859706, s=2.000000)
RESIDUAL: 0.0

OPT_VAL: 4.7731372245253665   4.573137224525366   4.573137224525366   6.8597058367880495
VCONF:
  Al_3d : PowerConfinement(r0=4.773137, s=2.000000)
  Al_3p : PowerConfinement(r0=4.573137, s=2.000000)
  Al_3s : PowerConfinement(r0=4.573137, s=2.000000)
  Al_n : PowerConfinement(r0=6.859706, s=2.000000)
RESIDUAL: 0.0

OPT_VAL: 4.573137224525366   4.7731372245253665   4.573137224525366   6.8597058367880495
VCONF:
  Al_3d : PowerConfinement(r0=4.573137, s=2.000000)
  Al_3p : PowerConfinement(r0=4.773137, s=2.000000)
  Al_3s : PowerConfinement(r0=4.573137, s=2.000000)
  Al_n : PowerConfinement(r0=6.859706, s=2.000000)
RESIDUAL: 0.0

OPT_VAL: 4.573137224525366   4.573137224525366   4.7731372245253665   6.8597058367880495
VCONF:
  Al_3d : PowerConfinement(r0=4.573137, s=2.000000)
  Al_3p : PowerConfinement(r0=4.573137, s=2.000000)
  Al_3s : PowerConfinement(r0=4.773137, s=2.000000)
  Al_n : PowerConfinement(r0=6.859706, s=2.000000)
RESIDUAL: 0.0

OPT_VAL: 4.573137224525366   4.573137224525366   4.573137224525366   7.05970583678805
VCONF:
  Al_3d : PowerConfinement(r0=4.573137, s=2.000000)
  Al_3p : PowerConfinement(r0=4.573137, s=2.000000)
  Al_3s : PowerConfinement(r0=4.573137, s=2.000000)
  Al_n : PowerConfinement(r0=7.059706, s=2.000000)
RESIDUAL: 0.0

OPT_VAL: 4.598137224525367   4.573137224525366   4.573137224525366   6.8597058367880495
VCONF:
  Al_3d : PowerConfinement(r0=4.598137, s=2.000000)
  Al_3p : PowerConfinement(r0=4.573137, s=2.000000)
  Al_3s : PowerConfinement(r0=4.573137, s=2.000000)
  Al_n : PowerConfinement(r0=6.859706, s=2.000000)
RESIDUAL: 0.0

OPT_VAL: 4.573137224525366   4.598137224525367   4.573137224525366   6.8597058367880495
VCONF:
  Al_3d : PowerConfinement(r0=4.573137, s=2.000000)
  Al_3p : PowerConfinement(r0=4.598137, s=2.000000)
  Al_3s : PowerConfinement(r0=4.573137, s=2.000000)
  Al_n : PowerConfinement(r0=6.859706, s=2.000000)
RESIDUAL: 0.0

OPT_VAL: 4.573137224525366   4.573137224525366   4.598137224525367   6.8597058367880495
VCONF:
  Al_3d : PowerConfinement(r0=4.573137, s=2.000000)
  Al_3p : PowerConfinement(r0=4.573137, s=2.000000)
  Al_3s : PowerConfinement(r0=4.598137, s=2.000000)
  Al_n : PowerConfinement(r0=6.859706, s=2.000000)
RESIDUAL: 0.0

OPT_VAL: 4.573137224525366   4.573137224525366   4.573137224525366   6.88470583678805
VCONF:
  Al_3d : PowerConfinement(r0=4.573137, s=2.000000)
  Al_3p : PowerConfinement(r0=4.573137, s=2.000000)
  Al_3s : PowerConfinement(r0=4.573137, s=2.000000)
  Al_n : PowerConfinement(r0=6.884706, s=2.000000)
RESIDUAL: 0.0

OPT_VAL: 4.578137224525366   4.573137224525366   4.573137224525366   6.8597058367880495
VCONF:
  Al_3d : PowerConfinement(r0=4.578137, s=2.000000)
  Al_3p : PowerConfinement(r0=4.573137, s=2.000000)
  Al_3s : PowerConfinement(r0=4.573137, s=2.000000)
  Al_n : PowerConfinement(r0=6.859706, s=2.000000)
RESIDUAL: 0.0

OPT_VAL: 4.573137224525366   4.578137224525366   4.573137224525366   6.8597058367880495
VCONF:
  Al_3d : PowerConfinement(r0=4.573137, s=2.000000)
  Al_3p : PowerConfinement(r0=4.578137, s=2.000000)
  Al_3s : PowerConfinement(r0=4.573137, s=2.000000)
  Al_n : PowerConfinement(r0=6.859706, s=2.000000)
RESIDUAL: 0.0

OPT_VAL: 4.573137224525366   4.573137224525366   4.578137224525366   6.8597058367880495
VCONF:
  Al_3d : PowerConfinement(r0=4.573137, s=2.000000)
  Al_3p : PowerConfinement(r0=4.573137, s=2.000000)
  Al_3s : PowerConfinement(r0=4.578137, s=2.000000)
  Al_n : PowerConfinement(r0=6.859706, s=2.000000)
RESIDUAL: 0.0

OPT_VAL: 4.573137224525366   4.573137224525366   4.573137224525366   6.864705836788049
VCONF:
  Al_3d : PowerConfinement(r0=4.573137, s=2.000000)
  Al_3p : PowerConfinement(r0=4.573137, s=2.000000)
  Al_3s : PowerConfinement(r0=4.573137, s=2.000000)
  Al_n : PowerConfinement(r0=6.864706, s=2.000000)
RESIDUAL: 0.0

*******************************************
Optimization finished after 13 iterations
Adjustable parameters and final values:
  Al_3d.r0 : 4.573137
  Al_3p.r0 : 4.573137
  Al_3s.r0 : 4.573137
  Al_n.r0 : 6.859706
*******************************************

VCONF:
  Al_3d : PowerConfinement(r0=4.573137, s=2.000000)
  Al_3p : PowerConfinement(r0=4.573137, s=2.000000)
  Al_3s : PowerConfinement(r0=4.573137, s=2.000000)
  Al_n : PowerConfinement(r0=6.859706, s=2.000000)
