
     Program PWSCF v.6.0 (svn rev. 13079) starts on 26Feb2021 at  6:36:15 

     This program is part of the open-source Quantum ESPRESSO suite
     for quantum simulation of materials; please cite
         "P. Giannozzi et al., J. Phys.:Condens. Matter 21 395502 (2009);
          URL http://www.quantum-espresso.org", 
     in publications or presentations arising from this work. More details at
     http://www.quantum-espresso.org/quote

     Parallel version (MPI), running on     1 processors
     Reading input from espresso.pwi
Warning: card &IONS ignored
Warning: card / ignored
Warning: card &CELL ignored
Warning: card / ignored

     Current dimensions of program PWSCF are:
     Max number of different atomic species (ntypx) = 10
     Max number of k-points (npk) =  40000
     Max angular momentum in pseudopotentials (lmaxx) =  3
     Message from routine input:
     WARNING: "startingwfc" set to atomic+random may spoil restart

     Atomic positions and unit cell read from directory:
     ./pwscf.save/


     IMPORTANT: XC functional enforced from input :
     Exchange-correlation      = PBE ( 1  4  3  4 0 0)
     Any further DFT definition will be discarded
     Please, verify this is what you really want


     Subspace diagonalization in iterative solution of the eigenvalue problem:
     a serial algorithm will be used


     G-vector sticks info
     --------------------
     sticks:   dense  smooth     PW     G-vecs:    dense   smooth      PW
     Sum         253     199     73                 5131     3681     723



     bravais-lattice index     =            0
     lattice parameter (alat)  =       4.2760  a.u.
     unit-cell volume          =     106.9193 (a.u.)^3
     number of atoms/cell      =            2
     number of atomic types    =            1
     number of electrons       =         8.00
     number of Kohn-Sham states=            8
     kinetic-energy cutoff     =      40.0000  Ry
     charge density cutoff     =     200.0000  Ry
     Exchange-correlation      = PBE ( 1  4  3  4 0 0)

     celldm(1)=   4.275995  celldm(2)=   0.000000  celldm(3)=   0.000000
     celldm(4)=   0.000000  celldm(5)=   0.000000  celldm(6)=   0.000000

     crystal axes: (cart. coord. in units of alat)
               a(1) = (   1.000000   0.000000   0.000000 )  
               a(2) = (  -0.500000   0.866025   0.000000 )  
               a(3) = (   0.000000   0.000000   1.579116 )  

     reciprocal axes: (cart. coord. in units 2 pi/alat)
               b(1) = (  1.000000  0.577350 -0.000000 )  
               b(2) = (  0.000000  1.154701  0.000000 )  
               b(3) = (  0.000000 -0.000000  0.633266 )  


     PseudoPot. # 1 for Be read from file:
     /home/inukai/tango/tests/1element/qe_fit_v3_Be/../pseudo/be_pbe_v1.4.uspp.F.UPF
     MD5 check sum: 5ecff1440924c7c98ad504bef30f5264
     Pseudo is Ultrasoft, Zval =  4.0
     Generated by new atomic code, or converted to UPF format
     Using radial grid of  769 points,  6 beta functions with: 
                l(1) =   0
                l(2) =   0
                l(3) =   0
                l(4) =   1
                l(5) =   1
                l(6) =   2
     Q(r) pseudized with 10 coefficients,  rinner =    1.000   1.000   1.000
                                                       1.000   1.000

     atomic species   valence    mass     pseudopotential
        Be             4.00     9.01218     Be( 1.00)

     24 Sym. Ops., with inversion, found (12 have fractional translation)


                                    s                        frac. trans.

      isym =  1     identity                                     

 cryst.   s( 1) = (     1          0          0      )
                  (     0          1          0      )
                  (     0          0          1      )

 cart.    s( 1) = (  1.0000000  0.0000000  0.0000000 )
                  (  0.0000000  1.0000000  0.0000000 )
                  (  0.0000000  0.0000000  1.0000000 )


      isym =  2     180 deg rotation - cart. axis [0,0,1]        

 cryst.   s( 2) = (    -1          0          0      )    f =(  0.0000000 )
                  (     0         -1          0      )       (  0.0000000 )
                  (     0          0          1      )       (  0.5000000 )

 cart.    s( 2) = ( -1.0000000  0.0000000  0.0000000 )    f =(  0.0000000 )
                  (  0.0000000 -1.0000000  0.0000000 )       (  0.0000000 )
                  (  0.0000000  0.0000000  1.0000000 )       (  0.7895580 )


      isym =  3     180 deg rotation - cart. axis [0,1,0]        

 cryst.   s( 3) = (    -1          0          0      )    f =(  0.0000000 )
                  (     1          1          0      )       (  0.0000000 )
                  (     0          0         -1      )       (  0.5000000 )

 cart.    s( 3) = ( -1.0000000  0.0000000  0.0000000 )    f =(  0.0000000 )
                  (  0.0000000  1.0000000  0.0000000 )       (  0.0000000 )
                  (  0.0000000  0.0000000 -1.0000000 )       (  0.7895580 )


      isym =  4     180 deg rotation - cart. axis [1,0,0]        

 cryst.   s( 4) = (     1          0          0      )
                  (    -1         -1          0      )
                  (     0          0         -1      )

 cart.    s( 4) = (  1.0000000 -0.0000000  0.0000000 )
                  (  0.0000000 -1.0000000  0.0000000 )
                  (  0.0000000  0.0000000 -1.0000000 )


      isym =  5      60 deg rotation - cryst. axis [0,0,1]       

 cryst.   s( 5) = (     1          1          0      )    f =(  0.0000000 )
                  (    -1          0          0      )       (  0.0000000 )
                  (     0          0          1      )       (  0.5000000 )

 cart.    s( 5) = (  0.5000000 -0.8660254  0.0000000 )    f =(  0.0000000 )
                  (  0.8660254  0.5000000  0.0000000 )       (  0.0000000 )
                  (  0.0000000  0.0000000  1.0000000 )       (  0.7895580 )


      isym =  6      60 deg rotation - cryst. axis [0,0,-1]      

 cryst.   s( 6) = (     0         -1          0      )    f =(  0.0000000 )
                  (     1          1          0      )       (  0.0000000 )
                  (     0          0          1      )       (  0.5000000 )

 cart.    s( 6) = (  0.5000000  0.8660254  0.0000000 )    f =(  0.0000000 )
                  ( -0.8660254  0.5000000  0.0000000 )       (  0.0000000 )
                  (  0.0000000  0.0000000  1.0000000 )       (  0.7895580 )


      isym =  7     120 deg rotation - cryst. axis [0,0,1]       

 cryst.   s( 7) = (     0          1          0      )
                  (    -1         -1          0      )
                  (     0          0          1      )

 cart.    s( 7) = ( -0.5000000 -0.8660254  0.0000000 )
                  (  0.8660254 -0.5000000  0.0000000 )
                  (  0.0000000  0.0000000  1.0000000 )


      isym =  8     120 deg rotation - cryst. axis [0,0,-1]      

 cryst.   s( 8) = (    -1         -1          0      )
                  (     1          0          0      )
                  (     0          0          1      )

 cart.    s( 8) = ( -0.5000000  0.8660254  0.0000000 )
                  ( -0.8660254 -0.5000000  0.0000000 )
                  (  0.0000000  0.0000000  1.0000000 )


      isym =  9     180 deg rotation - cryst. axis [1,-1,0]      

 cryst.   s( 9) = (     0         -1          0      )    f =(  0.0000000 )
                  (    -1          0          0      )       (  0.0000000 )
                  (     0          0         -1      )       (  0.5000000 )

 cart.    s( 9) = (  0.5000000 -0.8660254  0.0000000 )    f =(  0.0000000 )
                  ( -0.8660254 -0.5000000  0.0000000 )       (  0.0000000 )
                  (  0.0000000  0.0000000 -1.0000000 )       (  0.7895580 )


      isym = 10     180 deg rotation - cryst. axis [2,1,0]       

 cryst.   s(10) = (     1          1          0      )    f =(  0.0000000 )
                  (     0         -1          0      )       (  0.0000000 )
                  (     0          0         -1      )       (  0.5000000 )

 cart.    s(10) = (  0.5000000  0.8660254  0.0000000 )    f =(  0.0000000 )
                  (  0.8660254 -0.5000000  0.0000000 )       (  0.0000000 )
                  (  0.0000000  0.0000000 -1.0000000 )       (  0.7895580 )


      isym = 11     180 deg rotation - cryst. axis [0,1,0]       

 cryst.   s(11) = (    -1         -1          0      )
                  (     0          1          0      )
                  (     0          0         -1      )

 cart.    s(11) = ( -0.5000000 -0.8660254  0.0000000 )
                  ( -0.8660254  0.5000000  0.0000000 )
                  (  0.0000000  0.0000000 -1.0000000 )


      isym = 12     180 deg rotation - cryst. axis [1,1,0]       

 cryst.   s(12) = (     0          1          0      )
                  (     1          0          0      )
                  (     0          0         -1      )

 cart.    s(12) = ( -0.5000000  0.8660254  0.0000000 )
                  (  0.8660254  0.5000000  0.0000000 )
                  (  0.0000000  0.0000000 -1.0000000 )


      isym = 13     inversion                                    

 cryst.   s(13) = (    -1          0          0      )
                  (     0         -1          0      )
                  (     0          0         -1      )

 cart.    s(13) = ( -1.0000000  0.0000000  0.0000000 )
                  (  0.0000000 -1.0000000  0.0000000 )
                  (  0.0000000  0.0000000 -1.0000000 )


      isym = 14     inv. 180 deg rotation - cart. axis [0,0,1]   

 cryst.   s(14) = (     1          0          0      )    f =(  0.0000000 )
                  (     0          1          0      )       (  0.0000000 )
                  (     0          0         -1      )       (  0.5000000 )

 cart.    s(14) = (  1.0000000  0.0000000  0.0000000 )    f =(  0.0000000 )
                  (  0.0000000  1.0000000  0.0000000 )       (  0.0000000 )
                  (  0.0000000  0.0000000 -1.0000000 )       (  0.7895580 )


      isym = 15     inv. 180 deg rotation - cart. axis [0,1,0]   

 cryst.   s(15) = (     1          0          0      )    f =(  0.0000000 )
                  (    -1         -1          0      )       (  0.0000000 )
                  (     0          0          1      )       (  0.5000000 )

 cart.    s(15) = (  1.0000000 -0.0000000  0.0000000 )    f =(  0.0000000 )
                  (  0.0000000 -1.0000000  0.0000000 )       (  0.0000000 )
                  (  0.0000000  0.0000000  1.0000000 )       (  0.7895580 )


      isym = 16     inv. 180 deg rotation - cart. axis [1,0,0]   

 cryst.   s(16) = (    -1          0          0      )
                  (     1          1          0      )
                  (     0          0          1      )

 cart.    s(16) = ( -1.0000000  0.0000000  0.0000000 )
                  (  0.0000000  1.0000000  0.0000000 )
                  (  0.0000000  0.0000000  1.0000000 )


      isym = 17     inv.  60 deg rotation - cryst. axis [0,0,1]  

 cryst.   s(17) = (    -1         -1          0      )    f =(  0.0000000 )
                  (     1          0          0      )       (  0.0000000 )
                  (     0          0         -1      )       (  0.5000000 )

 cart.    s(17) = ( -0.5000000  0.8660254  0.0000000 )    f =(  0.0000000 )
                  ( -0.8660254 -0.5000000  0.0000000 )       (  0.0000000 )
                  (  0.0000000  0.0000000 -1.0000000 )       (  0.7895580 )


      isym = 18     inv.  60 deg rotation - cryst. axis [0,0,-1] 

 cryst.   s(18) = (     0          1          0      )    f =(  0.0000000 )
                  (    -1         -1          0      )       (  0.0000000 )
                  (     0          0         -1      )       (  0.5000000 )

 cart.    s(18) = ( -0.5000000 -0.8660254  0.0000000 )    f =(  0.0000000 )
                  (  0.8660254 -0.5000000  0.0000000 )       (  0.0000000 )
                  (  0.0000000  0.0000000 -1.0000000 )       (  0.7895580 )


      isym = 19     inv. 120 deg rotation - cryst. axis [0,0,1]  

 cryst.   s(19) = (     0         -1          0      )
                  (     1          1          0      )
                  (     0          0         -1      )

 cart.    s(19) = (  0.5000000  0.8660254  0.0000000 )
                  ( -0.8660254  0.5000000  0.0000000 )
                  (  0.0000000  0.0000000 -1.0000000 )


      isym = 20     inv. 120 deg rotation - cryst. axis [0,0,-1] 

 cryst.   s(20) = (     1          1          0      )
                  (    -1          0          0      )
                  (     0          0         -1      )

 cart.    s(20) = (  0.5000000 -0.8660254  0.0000000 )
                  (  0.8660254  0.5000000  0.0000000 )
                  (  0.0000000  0.0000000 -1.0000000 )


      isym = 21     inv. 180 deg rotation - cryst. axis [1,-1,0] 

 cryst.   s(21) = (     0          1          0      )    f =(  0.0000000 )
                  (     1          0          0      )       (  0.0000000 )
                  (     0          0          1      )       (  0.5000000 )

 cart.    s(21) = ( -0.5000000  0.8660254  0.0000000 )    f =(  0.0000000 )
                  (  0.8660254  0.5000000  0.0000000 )       (  0.0000000 )
                  (  0.0000000  0.0000000  1.0000000 )       (  0.7895580 )


      isym = 22     inv. 180 deg rotation - cryst. axis [2,1,0]  

 cryst.   s(22) = (    -1         -1          0      )    f =(  0.0000000 )
                  (     0          1          0      )       (  0.0000000 )
                  (     0          0          1      )       (  0.5000000 )

 cart.    s(22) = ( -0.5000000 -0.8660254  0.0000000 )    f =(  0.0000000 )
                  ( -0.8660254  0.5000000  0.0000000 )       (  0.0000000 )
                  (  0.0000000  0.0000000  1.0000000 )       (  0.7895580 )


      isym = 23     inv. 180 deg rotation - cryst. axis [0,1,0]  

 cryst.   s(23) = (     1          1          0      )
                  (     0         -1          0      )
                  (     0          0          1      )

 cart.    s(23) = (  0.5000000  0.8660254  0.0000000 )
                  (  0.8660254 -0.5000000  0.0000000 )
                  (  0.0000000  0.0000000  1.0000000 )


      isym = 24     inv. 180 deg rotation - cryst. axis [1,1,0]  

 cryst.   s(24) = (     0         -1          0      )
                  (    -1          0          0      )
                  (     0          0          1      )

 cart.    s(24) = (  0.5000000 -0.8660254  0.0000000 )
                  ( -0.8660254 -0.5000000  0.0000000 )
                  (  0.0000000  0.0000000  1.0000000 )


   Cartesian axes

     site n.     atom                  positions (alat units)
         1           Be  tau(   1) = (   0.0000000   0.5773503   1.1843370  )
         2           Be  tau(   2) = (   0.5000000   0.2886751   0.3947790  )

   Crystallographic axes

     site n.     atom                  positions (cryst. coord.)
         1           Be  tau(   1) = (  0.3333333  0.6666667  0.7500000  )
         2           Be  tau(   2) = (  0.6666667  0.3333333  0.2500000  )

     number of k points=    50  gaussian smearing, width (Ry)=  0.0010
                       cart. coord. in units 2pi/alat
        k(    1) = (   0.0000000   0.0000000   0.0000000), wk =   0.0400000
        k(    2) = (   0.0833333   0.0481125   0.0000000), wk =   0.0400000
        k(    3) = (   0.1666667   0.0962250   0.0000000), wk =   0.0400000
        k(    4) = (   0.2500000   0.1443376   0.0000000), wk =   0.0400000
        k(    5) = (   0.3333333   0.1924501   0.0000000), wk =   0.0400000
        k(    6) = (   0.4166667   0.2405626   0.0000000), wk =   0.0400000
        k(    7) = (   0.5000000   0.2886751   0.0000000), wk =   0.0400000
        k(    8) = (   0.4444444   0.3849002   0.0000000), wk =   0.0400000
        k(    9) = (   0.3888889   0.4811252   0.0000000), wk =   0.0400000
        k(   10) = (   0.3333333   0.5773503   0.0000000), wk =   0.0400000
        k(   11) = (   0.2916667   0.5051815   0.0000000), wk =   0.0400000
        k(   12) = (   0.2500000   0.4330127   0.0000000), wk =   0.0400000
        k(   13) = (   0.2083333   0.3608439   0.0000000), wk =   0.0400000
        k(   14) = (   0.1666667   0.2886751   0.0000000), wk =   0.0400000
        k(   15) = (   0.1250000   0.2165064   0.0000000), wk =   0.0400000
        k(   16) = (   0.0833333   0.1443376   0.0000000), wk =   0.0400000
        k(   17) = (   0.0416667   0.0721688   0.0000000), wk =   0.0400000
        k(   18) = (   0.0000000   0.0000000   0.0000000), wk =   0.0400000
        k(   19) = (   0.0000000   0.0000000   0.1055443), wk =   0.0400000
        k(   20) = (   0.0000000   0.0000000   0.2110886), wk =   0.0400000
        k(   21) = (   0.0000000   0.0000000   0.3166328), wk =   0.0400000
        k(   22) = (   0.0714286   0.0412393   0.3166328), wk =   0.0400000
        k(   23) = (   0.1428571   0.0824786   0.3166328), wk =   0.0400000
        k(   24) = (   0.2142857   0.1237179   0.3166328), wk =   0.0400000
        k(   25) = (   0.2857143   0.1649572   0.3166328), wk =   0.0400000
        k(   26) = (   0.3571429   0.2061965   0.3166328), wk =   0.0400000
        k(   27) = (   0.4285714   0.2474358   0.3166328), wk =   0.0400000
        k(   28) = (   0.5000000   0.2886751   0.3166328), wk =   0.0400000
        k(   29) = (   0.4583333   0.3608439   0.3166328), wk =   0.0400000
        k(   30) = (   0.4166667   0.4330127   0.3166328), wk =   0.0400000
        k(   31) = (   0.3750000   0.5051815   0.3166328), wk =   0.0400000
        k(   32) = (   0.3333333   0.5773503   0.3166328), wk =   0.0400000
        k(   33) = (   0.2962963   0.5132002   0.3166328), wk =   0.0400000
        k(   34) = (   0.2592593   0.4490502   0.3166328), wk =   0.0400000
        k(   35) = (   0.2222222   0.3849002   0.3166328), wk =   0.0400000
        k(   36) = (   0.1851852   0.3207501   0.3166328), wk =   0.0400000
        k(   37) = (   0.1481481   0.2566001   0.3166328), wk =   0.0400000
        k(   38) = (   0.1111111   0.1924501   0.3166328), wk =   0.0400000
        k(   39) = (   0.0740741   0.1283001   0.3166328), wk =   0.0400000
        k(   40) = (   0.0370370   0.0641500   0.3166328), wk =   0.0400000
        k(   41) = (   0.0000000   0.0000000   0.3166328), wk =   0.0400000
        k(   42) = (   0.5000000   0.2886751   0.3166328), wk =   0.0400000
        k(   43) = (   0.5000000   0.2886751   0.2374746), wk =   0.0400000
        k(   44) = (   0.5000000   0.2886751   0.1583164), wk =   0.0400000
        k(   45) = (   0.5000000   0.2886751   0.0791582), wk =   0.0400000
        k(   46) = (   0.5000000   0.2886751   0.0000000), wk =   0.0400000
        k(   47) = (   0.3333333   0.5773503   0.0000000), wk =   0.0400000
        k(   48) = (   0.3333333   0.5773503   0.1055443), wk =   0.0400000
        k(   49) = (   0.3333333   0.5773503   0.2110886), wk =   0.0400000
        k(   50) = (   0.3333333   0.5773503   0.3166328), wk =   0.0400000

                       cryst. coord.
        k(    1) = (   0.0000000   0.0000000   0.0000000), wk =   0.0400000
        k(    2) = (   0.0833333  -0.0000000   0.0000000), wk =   0.0400000
        k(    3) = (   0.1666667   0.0000000   0.0000000), wk =   0.0400000
        k(    4) = (   0.2500000   0.0000000   0.0000000), wk =   0.0400000
        k(    5) = (   0.3333333   0.0000000   0.0000000), wk =   0.0400000
        k(    6) = (   0.4166667   0.0000000   0.0000000), wk =   0.0400000
        k(    7) = (   0.5000000   0.0000000   0.0000000), wk =   0.0400000
        k(    8) = (   0.4444444   0.1111111   0.0000000), wk =   0.0400000
        k(    9) = (   0.3888889   0.2222222   0.0000000), wk =   0.0400000
        k(   10) = (   0.3333333   0.3333333   0.0000000), wk =   0.0400000
        k(   11) = (   0.2916667   0.2916667   0.0000000), wk =   0.0400000
        k(   12) = (   0.2500000   0.2500000   0.0000000), wk =   0.0400000
        k(   13) = (   0.2083333   0.2083333   0.0000000), wk =   0.0400000
        k(   14) = (   0.1666667   0.1666667   0.0000000), wk =   0.0400000
        k(   15) = (   0.1250000   0.1250000   0.0000000), wk =   0.0400000
        k(   16) = (   0.0833333   0.0833333   0.0000000), wk =   0.0400000
        k(   17) = (   0.0416667   0.0416667   0.0000000), wk =   0.0400000
        k(   18) = (   0.0000000   0.0000000   0.0000000), wk =   0.0400000
        k(   19) = (   0.0000000   0.0000000   0.1666667), wk =   0.0400000
        k(   20) = (   0.0000000   0.0000000   0.3333333), wk =   0.0400000
        k(   21) = (   0.0000000   0.0000000   0.5000000), wk =   0.0400000
        k(   22) = (   0.0714286   0.0000000   0.5000000), wk =   0.0400000
        k(   23) = (   0.1428571   0.0000000   0.5000000), wk =   0.0400000
        k(   24) = (   0.2142857   0.0000000   0.5000000), wk =   0.0400000
        k(   25) = (   0.2857143   0.0000000   0.5000000), wk =   0.0400000
        k(   26) = (   0.3571429   0.0000000   0.5000000), wk =   0.0400000
        k(   27) = (   0.4285714   0.0000000   0.5000000), wk =   0.0400000
        k(   28) = (   0.5000000   0.0000000   0.5000000), wk =   0.0400000
        k(   29) = (   0.4583333   0.0833333   0.5000000), wk =   0.0400000
        k(   30) = (   0.4166667   0.1666667   0.5000000), wk =   0.0400000
        k(   31) = (   0.3750000   0.2500000   0.5000000), wk =   0.0400000
        k(   32) = (   0.3333333   0.3333333   0.5000000), wk =   0.0400000
        k(   33) = (   0.2962963   0.2962963   0.5000000), wk =   0.0400000
        k(   34) = (   0.2592593   0.2592593   0.5000000), wk =   0.0400000
        k(   35) = (   0.2222222   0.2222222   0.5000000), wk =   0.0400000
        k(   36) = (   0.1851852   0.1851852   0.5000000), wk =   0.0400000
        k(   37) = (   0.1481481   0.1481481   0.5000000), wk =   0.0400000
        k(   38) = (   0.1111111   0.1111111   0.5000000), wk =   0.0400000
        k(   39) = (   0.0740741   0.0740741   0.5000000), wk =   0.0400000
        k(   40) = (   0.0370370   0.0370370   0.5000000), wk =   0.0400000
        k(   41) = (   0.0000000   0.0000000   0.5000000), wk =   0.0400000
        k(   42) = (   0.5000000   0.0000000   0.5000000), wk =   0.0400000
        k(   43) = (   0.5000000   0.0000000   0.3750000), wk =   0.0400000
        k(   44) = (   0.5000000   0.0000000   0.2500000), wk =   0.0400000
        k(   45) = (   0.5000000   0.0000000   0.1250000), wk =   0.0400000
        k(   46) = (   0.5000000   0.0000000   0.0000000), wk =   0.0400000
        k(   47) = (   0.3333333   0.3333333   0.0000000), wk =   0.0400000
        k(   48) = (   0.3333333   0.3333333   0.1666667), wk =   0.0400000
        k(   49) = (   0.3333333   0.3333333   0.3333333), wk =   0.0400000
        k(   50) = (   0.3333333   0.3333333   0.5000000), wk =   0.0400000

     Dense  grid:     5131 G-vectors     FFT dimensions: (  20,  20,  32)

     Smooth grid:     3681 G-vectors     FFT dimensions: (  18,  18,  27)

     Estimated max dynamical RAM per process >       5.02Mb

     The potential is recalculated from file :
     ./pwscf.save/charge-density.dat

     Starting wfc are   10 randomized atomic wfcs

     Band Structure Calculation
     Davidson diagonalization with overlap

     Computing kpt #:     1
     total cpu time spent up to now is        0.5 secs

     Computing kpt #:     2
     total cpu time spent up to now is        0.6 secs

     Computing kpt #:     3
     total cpu time spent up to now is        0.7 secs

     Computing kpt #:     4
     total cpu time spent up to now is        0.8 secs

     Computing kpt #:     5
     total cpu time spent up to now is        0.9 secs

     Computing kpt #:     6
     total cpu time spent up to now is        1.0 secs

     Computing kpt #:     7
     total cpu time spent up to now is        1.1 secs

     Computing kpt #:     8
     total cpu time spent up to now is        1.1 secs

     Computing kpt #:     9
     total cpu time spent up to now is        1.2 secs

     Computing kpt #:    10
     total cpu time spent up to now is        1.3 secs

     Computing kpt #:    11
     total cpu time spent up to now is        1.4 secs

     Computing kpt #:    12
     total cpu time spent up to now is        1.5 secs

     Computing kpt #:    13
     total cpu time spent up to now is        1.6 secs

     Computing kpt #:    14
     total cpu time spent up to now is        1.7 secs

     Computing kpt #:    15
     total cpu time spent up to now is        1.8 secs

     Computing kpt #:    16
     total cpu time spent up to now is        1.9 secs

     Computing kpt #:    17
     total cpu time spent up to now is        2.0 secs

     Computing kpt #:    18
     total cpu time spent up to now is        2.1 secs

     Computing kpt #:    19
     total cpu time spent up to now is        2.1 secs

     Computing kpt #:    20
     total cpu time spent up to now is        2.2 secs

     Computing kpt #:    21
     total cpu time spent up to now is        2.3 secs

     Computing kpt #:    22
     total cpu time spent up to now is        2.4 secs

     Computing kpt #:    23
     total cpu time spent up to now is        2.5 secs

     Computing kpt #:    24
     total cpu time spent up to now is        2.6 secs

     Computing kpt #:    25
     total cpu time spent up to now is        2.7 secs

     Computing kpt #:    26
     total cpu time spent up to now is        2.8 secs

     Computing kpt #:    27
     total cpu time spent up to now is        2.9 secs

     Computing kpt #:    28
     total cpu time spent up to now is        3.0 secs

     Computing kpt #:    29
     total cpu time spent up to now is        3.1 secs

     Computing kpt #:    30
     total cpu time spent up to now is        3.2 secs

     Computing kpt #:    31
     total cpu time spent up to now is        3.3 secs

     Computing kpt #:    32
     total cpu time spent up to now is        3.3 secs

     Computing kpt #:    33
     total cpu time spent up to now is        3.4 secs

     Computing kpt #:    34
     total cpu time spent up to now is        3.5 secs

     Computing kpt #:    35
     total cpu time spent up to now is        3.6 secs

     Computing kpt #:    36
     total cpu time spent up to now is        3.7 secs

     Computing kpt #:    37
     total cpu time spent up to now is        3.8 secs

     Computing kpt #:    38
     total cpu time spent up to now is        3.9 secs

     Computing kpt #:    39
     total cpu time spent up to now is        4.0 secs

     Computing kpt #:    40
     total cpu time spent up to now is        4.1 secs

     Computing kpt #:    41
     total cpu time spent up to now is        4.2 secs

     Computing kpt #:    42
     total cpu time spent up to now is        4.3 secs

     Computing kpt #:    43
     total cpu time spent up to now is        4.4 secs

     Computing kpt #:    44
     total cpu time spent up to now is        4.5 secs

     Computing kpt #:    45
     total cpu time spent up to now is        4.6 secs

     Computing kpt #:    46
     total cpu time spent up to now is        4.7 secs

     Computing kpt #:    47
     total cpu time spent up to now is        4.8 secs

     Computing kpt #:    48
     total cpu time spent up to now is        4.8 secs

     Computing kpt #:    49
     total cpu time spent up to now is        4.9 secs

     Computing kpt #:    50
     total cpu time spent up to now is        5.0 secs

     ethr =  1.25E-09,  avg # of iterations = 10.3

     total cpu time spent up to now is        5.0 secs

     End of band structure calculation

          k = 0.0000 0.0000 0.0000 (   463 PWs)   bands (ev):

   -91.1171 -91.0889  -2.6285   4.2498   9.7625  24.7657  24.7657  27.5978

          k = 0.0833 0.0481 0.0000 (   461 PWs)   bands (ev):

   -91.1153 -91.0887  -2.4289   4.5118   9.8221  23.2036  23.6708  27.5869

          k = 0.1667 0.0962 0.0000 (   459 PWs)   bands (ev):

   -91.1115 -91.0875  -1.8294   5.2959   9.9646  19.9885  21.8971  27.2136

          k = 0.2500 0.1443 0.0000 (   463 PWs)   bands (ev):

   -91.1063 -91.0861  -0.8302   6.5952   9.9798  16.8380  20.3206  24.6233

          k = 0.3333 0.1925 0.0000 (   456 PWs)   bands (ev):

   -91.1002 -91.0849   0.5609   8.3897   9.1711  15.0127  19.1369  20.9142

          k = 0.4167 0.2406 0.0000 (   452 PWs)   bands (ev):

   -91.0955 -91.0844   2.2920   7.2095  10.5999  14.9944  17.3896  18.4104

          k = 0.5000 0.2887 0.0000 (   452 PWs)   bands (ev):

   -91.0934 -91.0847   3.7115   5.5867  12.3439  15.1888  15.4221  18.1661

          k = 0.4444 0.3849 0.0000 (   460 PWs)   bands (ev):

   -91.0929 -91.0847   4.0451   5.8443  12.6882  14.6436  15.4335  15.4481

          k = 0.3889 0.4811 0.0000 (   460 PWs)   bands (ev):

   -91.0906 -91.0853   5.0277   6.5890  10.7737  13.7173  15.4463  16.0154

          k = 0.3333 0.5774 0.0000 (   462 PWs)   bands (ev):

   -91.0875 -91.0875   6.2507   7.7172   7.7172  15.4183  15.4183  15.4369

          k = 0.2917 0.5052 0.0000 (   454 PWs)   bands (ev):

   -91.0899 -91.0855   4.7182   8.6421   8.6719  13.4040  15.4879  17.1180

          k = 0.2500 0.4330 0.0000 (   454 PWs)   bands (ev):

   -91.0936 -91.0844   2.7918   9.5111  10.6228  11.1443  15.7922  19.1538

          k = 0.2083 0.3608 0.0000 (   460 PWs)   bands (ev):

   -91.0979 -91.0848   1.1331   9.0942  10.0211  12.9767  16.5921  21.4749

          k = 0.1667 0.2887 0.0000 (   458 PWs)   bands (ev):

   -91.1031 -91.0854  -0.2248   7.3706  10.1614  15.6244  17.9540  23.9713

          k = 0.1250 0.2165 0.0000 (   457 PWs)   bands (ev):

   -91.1083 -91.0865  -1.2785   6.0121  10.0788  18.4718  19.7378  26.3974

          k = 0.0833 0.1443 0.0000 (   455 PWs)   bands (ev):

   -91.1125 -91.0877  -2.0292   5.0349   9.9290  21.3263  21.7491  27.5367

          k = 0.0417 0.0722 0.0000 (   461 PWs)   bands (ev):

   -91.1156 -91.0888  -2.4788   4.4463   9.8077  23.7061  23.7339  27.6216

          k = 0.0000 0.0000 0.0000 (   463 PWs)   bands (ev):

   -91.1171 -91.0889  -2.6285   4.2498   9.7625  24.7657  24.7657  27.5978

          k = 0.0000 0.0000 0.1055 (   451 PWs)   bands (ev):

   -91.1146 -91.0906  -2.3889   3.0641  11.5065  24.9813  24.9813  27.5119

          k = 0.0000 0.0000 0.2111 (   482 PWs)   bands (ev):

   -91.1104 -91.0965  -1.6701   1.1583  15.0599  23.8529  25.5818  25.5818

          k = 0.0000 0.0000 0.3166 (   494 PWs)   bands (ev):

   -91.1038 -91.1038  -0.4769  -0.4769  19.3286  19.3286  26.4041  26.4041

          k = 0.0714 0.0412 0.3166 (   482 PWs)   bands (ev):

   -91.1028 -91.1028  -0.3268  -0.3268  19.3675  19.3675  25.6329  25.6329

          k = 0.1429 0.0825 0.3166 (   468 PWs)   bands (ev):

   -91.1005 -91.1005   0.1217   0.1217  19.3659  19.3659  23.5973  23.5973

          k = 0.2143 0.1237 0.3166 (   454 PWs)   bands (ev):

   -91.0973 -91.0973   0.8627   0.8627  18.5054  18.5054  21.9179  21.9179

          k = 0.2857 0.1650 0.3166 (   456 PWs)   bands (ev):

   -91.0944 -91.0944   1.8786   1.8786  16.1132  16.1132  21.9576  21.9576

          k = 0.3571 0.2062 0.3166 (   448 PWs)   bands (ev):

   -91.0914 -91.0914   3.1185   3.1185  13.4789  13.4789  21.4501  21.4501

          k = 0.4286 0.2474 0.3166 (   450 PWs)   bands (ev):

   -91.0896 -91.0896   4.4047   4.4047  11.2837  11.2837  20.9350  20.9350

          k = 0.5000 0.2887 0.3166 (   456 PWs)   bands (ev):

   -91.0890 -91.0890   5.0893   5.0893  10.2882  10.2882  20.7614  20.7614

          k = 0.4583 0.3608 0.3166 (   456 PWs)   bands (ev):

   -91.0888 -91.0888   5.2818   5.2818  10.2931  10.2931  19.4522  19.4522

          k = 0.4167 0.4330 0.3166 (   460 PWs)   bands (ev):

   -91.0883 -91.0883   5.8534   5.8534  10.2190  10.2190  17.2268  17.2268

          k = 0.3750 0.5052 0.3166 (   462 PWs)   bands (ev):

   -91.0878 -91.0878   6.7679   6.7679   9.7740   9.7740  15.5565  15.5565

          k = 0.3333 0.5774 0.3166 (   444 PWs)   bands (ev):

   -91.0870 -91.0870   7.5933   7.5933   9.0703   9.0703  15.0181  15.0181

          k = 0.2963 0.5132 0.3166 (   452 PWs)   bands (ev):

   -91.0875 -91.0875   6.6530   6.6530  10.0431  10.0431  15.3186  15.3186

          k = 0.2593 0.4491 0.3166 (   454 PWs)   bands (ev):

   -91.0886 -91.0886   5.1780   5.1780  11.7950  11.7950  16.0335  16.0335

          k = 0.2222 0.3849 0.3166 (   454 PWs)   bands (ev):

   -91.0904 -91.0904   3.7554   3.7554  13.8803  13.8803  16.9863  16.9863

          k = 0.1852 0.3208 0.3166 (   458 PWs)   bands (ev):

   -91.0929 -91.0929   2.4959   2.4959  16.2083  16.2083  18.0660  18.0660

          k = 0.1481 0.2566 0.3166 (   456 PWs)   bands (ev):

   -91.0956 -91.0956   1.4401   1.4401  18.4236  18.4236  19.3628  19.3628

          k = 0.1111 0.1925 0.3166 (   462 PWs)   bands (ev):

   -91.0985 -91.0985   0.6069   0.6069  19.2704  19.2704  21.7207  21.7207

          k = 0.0741 0.1283 0.3166 (   468 PWs)   bands (ev):

   -91.1009 -91.1009   0.0064   0.0064  19.4083  19.4083  24.1550  24.1550

          k = 0.0370 0.0642 0.3166 (   480 PWs)   bands (ev):

   -91.1029 -91.1029  -0.3558  -0.3558  19.3613  19.3613  25.8195  25.8195

          k = 0.0000 0.0000 0.3166 (   494 PWs)   bands (ev):

   -91.1038 -91.1038  -0.4769  -0.4769  19.3286  19.3286  26.4041  26.4041

          k = 0.5000 0.2887 0.3166 (   456 PWs)   bands (ev):

   -91.0890 -91.0890   5.0893   5.0893  10.2882  10.2882  20.7614  20.7614

          k = 0.5000 0.2887 0.2375 (   446 PWs)   bands (ev):

   -91.0903 -91.0872   4.6045   5.4309  10.5356  10.6579  19.6452  22.1324

          k = 0.5000 0.2887 0.1583 (   454 PWs)   bands (ev):

   -91.0925 -91.0856   4.1408   5.5690  11.1918  11.6991  18.8285  20.0578

          k = 0.5000 0.2887 0.0792 (   458 PWs)   bands (ev):

   -91.0934 -91.0850   3.8230   5.5902  11.9600  13.2945  17.6073  18.3323

          k = 0.5000 0.2887 0.0000 (   452 PWs)   bands (ev):

   -91.0934 -91.0847   3.7115   5.5867  12.3439  15.1888  15.4221  18.1661

          k = 0.3333 0.5774 0.0000 (   462 PWs)   bands (ev):

   -91.0875 -91.0875   6.2507   7.7172   7.7172  15.4183  15.4183  15.4369

          k = 0.3333 0.5774 0.1055 (   462 PWs)   bands (ev):

   -91.0875 -91.0875   6.5666   7.6860   7.6860  13.7326  15.3043  15.3043

          k = 0.3333 0.5774 0.2111 (   450 PWs)   bands (ev):

   -91.0871 -91.0871   7.5110   7.6240   7.6240  11.2024  15.1057  15.1057

          k = 0.3333 0.5774 0.3166 (   444 PWs)   bands (ev):

   -91.0870 -91.0870   7.5933   7.5933   9.0703   9.0703  15.0181  15.0181

     Writing output data file pwscf.save

     init_run     :      0.42s CPU      0.32s WALL (       1 calls)
     electrons    :      8.81s CPU      4.55s WALL (       1 calls)

     Called by init_run:
     wfcinit      :      0.00s CPU      0.00s WALL (       1 calls)
     wfcinit:atom :      0.02s CPU      0.01s WALL (      50 calls)
     wfcinit:wfcr :      1.19s CPU      0.52s WALL (      50 calls)
     potinit      :      0.02s CPU      0.02s WALL (       1 calls)

     Called by electrons:
     c_bands      :      8.80s CPU      4.55s WALL (       1 calls)
     v_of_rho     :      0.02s CPU      0.01s WALL (       1 calls)
     v_h          :      0.00s CPU      0.00s WALL (       1 calls)
     v_xc         :      0.02s CPU      0.01s WALL (       1 calls)
     newd         :      0.00s CPU      0.02s WALL (       1 calls)

     Called by c_bands:
     init_us_2    :      0.05s CPU      0.02s WALL (      50 calls)
     cegterg      :      7.44s CPU      3.86s WALL (      50 calls)

     Called by sum_band:

     Called by *egterg:
     h_psi        :      6.88s CPU      3.45s WALL (     617 calls)
     s_psi        :      0.17s CPU      0.07s WALL (     617 calls)
     g_psi        :      0.00s CPU      0.02s WALL (     517 calls)
     cdiaghg      :      1.09s CPU      0.53s WALL (     567 calls)
     cegterg:over :      0.17s CPU      0.10s WALL (     517 calls)
     cegterg:upda :      0.05s CPU      0.08s WALL (     517 calls)
     cegterg:last :      0.12s CPU      0.05s WALL (     138 calls)

     Called by h_psi:
     h_psi:pot    :      6.84s CPU      3.43s WALL (     617 calls)
     h_psi:calbec :      0.28s CPU      0.08s WALL (     617 calls)
     vloc_psi     :      6.52s CPU      3.24s WALL (     617 calls)
     add_vuspsi   :      0.05s CPU      0.08s WALL (     617 calls)

     General routines
     calbec       :      0.28s CPU      0.08s WALL (     617 calls)
     fft          :      0.00s CPU      0.00s WALL (      12 calls)
     ffts         :      0.00s CPU      0.00s WALL (       1 calls)
     fftw         :      6.20s CPU      3.03s WALL (    7098 calls)
     interpolate  :      0.00s CPU      0.00s WALL (       1 calls)
     davcio       :      0.00s CPU      0.00s WALL (      50 calls)

     Parallel routines
     fft_scatter  :      0.25s CPU      0.12s WALL (    7111 calls)

     PWSCF        :     9.64s CPU         5.27s WALL


   This run was terminated on:   6:36:21  26Feb2021            

=------------------------------------------------------------------------------=
   JOB DONE.
=------------------------------------------------------------------------------=
