
     Program PWSCF v.6.0 (svn rev. 13079) starts on 25Feb2021 at 11: 4:43 

     This program is part of the open-source Quantum ESPRESSO suite
     for quantum simulation of materials; please cite
         "P. Giannozzi et al., J. Phys.:Condens. Matter 21 395502 (2009);
          URL http://www.quantum-espresso.org", 
     in publications or presentations arising from this work. More details at
     http://www.quantum-espresso.org/quote

     Parallel version (MPI), running on     1 processors
     Reading input from espresso.pwi
Warning: card &IONS ignored
Warning: card / ignored
Warning: card &CELL ignored
Warning: card / ignored

     Current dimensions of program PWSCF are:
     Max number of different atomic species (ntypx) = 10
     Max number of k-points (npk) =  40000
     Max angular momentum in pseudopotentials (lmaxx) =  3
     Message from routine input:
     WARNING: "startingwfc" set to atomic+random may spoil restart

     Atomic positions and unit cell read from directory:
     ./pwscf.save/


     IMPORTANT: XC functional enforced from input :
     Exchange-correlation      = PBE ( 1  4  3  4 0 0)
     Any further DFT definition will be discarded
     Please, verify this is what you really want


     Subspace diagonalization in iterative solution of the eigenvalue problem:
     a serial algorithm will be used


     G-vector sticks info
     --------------------
     sticks:   dense  smooth     PW     G-vecs:    dense   smooth      PW
     Sum         253     199     61                 5203     3741     699



     bravais-lattice index     =            0
     lattice parameter (alat)  =       4.3199  a.u.
     unit-cell volume          =     109.4580 (a.u.)^3
     number of atoms/cell      =            2
     number of atomic types    =            1
     number of electrons       =         8.00
     number of Kohn-Sham states=            8
     kinetic-energy cutoff     =      40.0000  Ry
     charge density cutoff     =     200.0000  Ry
     Exchange-correlation      = PBE ( 1  4  3  4 0 0)

     celldm(1)=   4.319914  celldm(2)=   0.000000  celldm(3)=   0.000000
     celldm(4)=   0.000000  celldm(5)=   0.000000  celldm(6)=   0.000000

     crystal axes: (cart. coord. in units of alat)
               a(1) = (   1.000000   0.000000   0.000000 )  
               a(2) = (  -0.500000   0.866025   0.000000 )  
               a(3) = (   0.000000   0.000000   1.567804 )  

     reciprocal axes: (cart. coord. in units 2 pi/alat)
               b(1) = (  1.000000  0.577350 -0.000000 )  
               b(2) = (  0.000000  1.154701  0.000000 )  
               b(3) = (  0.000000 -0.000000  0.637835 )  


     PseudoPot. # 1 for C  read from file:
     /home/inukai/tango/tests/1element/qe_fit_v2_C/../pseudo/c_pbe_v1.2.uspp.F.UPF
     MD5 check sum: d1aef80898a10debaa0f26306b886e00
     Pseudo is Ultrasoft + core correction, Zval =  4.0
     Generated by new atomic code, or converted to UPF format
     Using radial grid of  721 points,  4 beta functions with: 
                l(1) =   0
                l(2) =   0
                l(3) =   1
                l(4) =   1
     Q(r) pseudized with  8 coefficients,  rinner =    1.100   1.100   1.100


     atomic species   valence    mass     pseudopotential
        C              4.00    12.01100     C ( 1.00)

     12 Sym. Ops. (no inversion) found
          (note: 12 additional sym.ops. were found but ignored
           their fractional translations are incommensurate with FFT grid)

                                    s                        frac. trans.

      isym =  1     identity                                     

 cryst.   s( 1) = (     1          0          0      )
                  (     0          1          0      )
                  (     0          0          1      )

 cart.    s( 1) = (  1.0000000 -0.0000000  0.0000000 )
                  (  0.0000000  1.0000000  0.0000000 )
                  (  0.0000000  0.0000000  1.0000000 )


      isym =  2     180 deg rotation - cart. axis [0,1,0]        

 cryst.   s( 2) = (    -1          0          0      )
                  (     1          1          0      )
                  (     0          0         -1      )

 cart.    s( 2) = ( -1.0000000  0.0000000  0.0000000 )
                  (  0.0000000  1.0000000  0.0000000 )
                  (  0.0000000  0.0000000 -1.0000000 )


      isym =  3     120 deg rotation - cryst. axis [0,0,1]       

 cryst.   s( 3) = (     0          1          0      )
                  (    -1         -1          0      )
                  (     0          0          1      )

 cart.    s( 3) = ( -0.5000000 -0.8660254  0.0000000 )
                  (  0.8660254 -0.5000000  0.0000000 )
                  (  0.0000000  0.0000000  1.0000000 )


      isym =  4     120 deg rotation - cryst. axis [0,0,-1]      

 cryst.   s( 4) = (    -1         -1          0      )
                  (     1          0          0      )
                  (     0          0          1      )

 cart.    s( 4) = ( -0.5000000  0.8660254  0.0000000 )
                  ( -0.8660254 -0.5000000  0.0000000 )
                  (  0.0000000  0.0000000  1.0000000 )


      isym =  5     180 deg rotation - cryst. axis [1,-1,0]      

 cryst.   s( 5) = (     0         -1          0      )
                  (    -1          0          0      )
                  (     0          0         -1      )

 cart.    s( 5) = (  0.5000000 -0.8660254  0.0000000 )
                  ( -0.8660254 -0.5000000  0.0000000 )
                  (  0.0000000  0.0000000 -1.0000000 )


      isym =  6     180 deg rotation - cryst. axis [2,1,0]       

 cryst.   s( 6) = (     1          1          0      )
                  (     0         -1          0      )
                  (     0          0         -1      )

 cart.    s( 6) = (  0.5000000  0.8660254  0.0000000 )
                  (  0.8660254 -0.5000000  0.0000000 )
                  (  0.0000000  0.0000000 -1.0000000 )


      isym =  7     inv. 180 deg rotation - cart. axis [0,0,1]   

 cryst.   s( 7) = (     1          0          0      )
                  (     0          1          0      )
                  (     0          0         -1      )

 cart.    s( 7) = (  1.0000000 -0.0000000  0.0000000 )
                  (  0.0000000  1.0000000  0.0000000 )
                  (  0.0000000  0.0000000 -1.0000000 )


      isym =  8     inv. 180 deg rotation - cart. axis [1,0,0]   

 cryst.   s( 8) = (    -1          0          0      )
                  (     1          1          0      )
                  (     0          0          1      )

 cart.    s( 8) = ( -1.0000000  0.0000000  0.0000000 )
                  (  0.0000000  1.0000000  0.0000000 )
                  (  0.0000000  0.0000000  1.0000000 )


      isym =  9     inv.  60 deg rotation - cryst. axis [0,0,1]  

 cryst.   s( 9) = (    -1         -1          0      )
                  (     1          0          0      )
                  (     0          0         -1      )

 cart.    s( 9) = ( -0.5000000  0.8660254  0.0000000 )
                  ( -0.8660254 -0.5000000  0.0000000 )
                  (  0.0000000  0.0000000 -1.0000000 )


      isym = 10     inv.  60 deg rotation - cryst. axis [0,0,-1] 

 cryst.   s(10) = (     0          1          0      )
                  (    -1         -1          0      )
                  (     0          0         -1      )

 cart.    s(10) = ( -0.5000000 -0.8660254  0.0000000 )
                  (  0.8660254 -0.5000000  0.0000000 )
                  (  0.0000000  0.0000000 -1.0000000 )


      isym = 11     inv. 180 deg rotation - cryst. axis [0,1,0]  

 cryst.   s(11) = (     1          1          0      )
                  (     0         -1          0      )
                  (     0          0          1      )

 cart.    s(11) = (  0.5000000  0.8660254  0.0000000 )
                  (  0.8660254 -0.5000000  0.0000000 )
                  (  0.0000000  0.0000000  1.0000000 )


      isym = 12     inv. 180 deg rotation - cryst. axis [1,1,0]  

 cryst.   s(12) = (     0         -1          0      )
                  (    -1          0          0      )
                  (     0          0          1      )

 cart.    s(12) = (  0.5000000 -0.8660254  0.0000000 )
                  ( -0.8660254 -0.5000000  0.0000000 )
                  (  0.0000000  0.0000000  1.0000000 )


   Cartesian axes

     site n.     atom                  positions (alat units)
         1           C   tau(   1) = (   0.0000000   0.0000000   0.0000000  )
         2           C   tau(   2) = (   0.0000000   0.5773503   0.7839020  )

   Crystallographic axes

     site n.     atom                  positions (cryst. coord.)
         1           C   tau(   1) = (  0.0000000  0.0000000  0.0000000  )
         2           C   tau(   2) = (  0.3333333  0.6666667  0.5000000  )

     number of k points=    50  gaussian smearing, width (Ry)=  0.0010
                       cart. coord. in units 2pi/alat
        k(    1) = (   0.0000000   0.0000000   0.0000000), wk =   0.0400000
        k(    2) = (   0.0357143   0.0206197   0.0000000), wk =   0.0400000
        k(    3) = (   0.0714286   0.0412393   0.0000000), wk =   0.0400000
        k(    4) = (   0.1071429   0.0618590   0.0000000), wk =   0.0400000
        k(    5) = (   0.1428571   0.0824786   0.0000000), wk =   0.0400000
        k(    6) = (   0.1785714   0.1030983   0.0000000), wk =   0.0400000
        k(    7) = (   0.2142857   0.1237179   0.0000000), wk =   0.0400000
        k(    8) = (   0.2500000   0.1443376   0.0000000), wk =   0.0400000
        k(    9) = (   0.2857143   0.1649572   0.0000000), wk =   0.0400000
        k(   10) = (   0.3214286   0.1855769   0.0000000), wk =   0.0400000
        k(   11) = (   0.3571429   0.2061965   0.0000000), wk =   0.0400000
        k(   12) = (   0.3928571   0.2268162   0.0000000), wk =   0.0400000
        k(   13) = (   0.4285714   0.2474358   0.0000000), wk =   0.0400000
        k(   14) = (   0.4642857   0.2680555   0.0000000), wk =   0.0400000
        k(   15) = (   0.5000000   0.2886751   0.0000000), wk =   0.0400000
        k(   16) = (   0.4791667   0.3247595   0.0000000), wk =   0.0400000
        k(   17) = (   0.4583333   0.3608439   0.0000000), wk =   0.0400000
        k(   18) = (   0.4375000   0.3969283   0.0000000), wk =   0.0400000
        k(   19) = (   0.4166667   0.4330127   0.0000000), wk =   0.0400000
        k(   20) = (   0.3958333   0.4690971   0.0000000), wk =   0.0400000
        k(   21) = (   0.3750000   0.5051815   0.0000000), wk =   0.0400000
        k(   22) = (   0.3541667   0.5412659   0.0000000), wk =   0.0400000
        k(   23) = (   0.3333333   0.5773503   0.0000000), wk =   0.0400000
        k(   24) = (   0.3148148   0.5452753   0.0000000), wk =   0.0400000
        k(   25) = (   0.2962963   0.5132002   0.0000000), wk =   0.0400000
        k(   26) = (   0.2777778   0.4811252   0.0000000), wk =   0.0400000
        k(   27) = (   0.2592593   0.4490502   0.0000000), wk =   0.0400000
        k(   28) = (   0.2407407   0.4169752   0.0000000), wk =   0.0400000
        k(   29) = (   0.2222222   0.3849002   0.0000000), wk =   0.0400000
        k(   30) = (   0.2037037   0.3528252   0.0000000), wk =   0.0400000
        k(   31) = (   0.1851852   0.3207501   0.0000000), wk =   0.0400000
        k(   32) = (   0.1666667   0.2886751   0.0000000), wk =   0.0400000
        k(   33) = (   0.1481481   0.2566001   0.0000000), wk =   0.0400000
        k(   34) = (   0.1296296   0.2245251   0.0000000), wk =   0.0400000
        k(   35) = (   0.1111111   0.1924501   0.0000000), wk =   0.0400000
        k(   36) = (   0.0925926   0.1603751   0.0000000), wk =   0.0400000
        k(   37) = (   0.0740741   0.1283001   0.0000000), wk =   0.0400000
        k(   38) = (   0.0555556   0.0962250   0.0000000), wk =   0.0400000
        k(   39) = (   0.0370370   0.0641500   0.0000000), wk =   0.0400000
        k(   40) = (   0.0185185   0.0320750   0.0000000), wk =   0.0400000
        k(   41) = (   0.0000000   0.0000000   0.0000000), wk =   0.0400000
        k(   42) = (   0.0000000   0.0000000   0.0354353), wk =   0.0400000
        k(   43) = (   0.0000000   0.0000000   0.0708705), wk =   0.0400000
        k(   44) = (   0.0000000   0.0000000   0.1063058), wk =   0.0400000
        k(   45) = (   0.0000000   0.0000000   0.1417411), wk =   0.0400000
        k(   46) = (   0.0000000   0.0000000   0.1771763), wk =   0.0400000
        k(   47) = (   0.0000000   0.0000000   0.2126116), wk =   0.0400000
        k(   48) = (   0.0000000   0.0000000   0.2480469), wk =   0.0400000
        k(   49) = (   0.0000000   0.0000000   0.2834821), wk =   0.0400000
        k(   50) = (   0.0000000   0.0000000   0.3189174), wk =   0.0400000

                       cryst. coord.
        k(    1) = (   0.0000000   0.0000000   0.0000000), wk =   0.0400000
        k(    2) = (   0.0357143   0.0000000   0.0000000), wk =   0.0400000
        k(    3) = (   0.0714286  -0.0000000   0.0000000), wk =   0.0400000
        k(    4) = (   0.1071429   0.0000000   0.0000000), wk =   0.0400000
        k(    5) = (   0.1428571  -0.0000000   0.0000000), wk =   0.0400000
        k(    6) = (   0.1785714  -0.0000000   0.0000000), wk =   0.0400000
        k(    7) = (   0.2142857   0.0000000   0.0000000), wk =   0.0400000
        k(    8) = (   0.2500000  -0.0000000   0.0000000), wk =   0.0400000
        k(    9) = (   0.2857143  -0.0000000   0.0000000), wk =   0.0400000
        k(   10) = (   0.3214286  -0.0000000   0.0000000), wk =   0.0400000
        k(   11) = (   0.3571429  -0.0000000   0.0000000), wk =   0.0400000
        k(   12) = (   0.3928571   0.0000000   0.0000000), wk =   0.0400000
        k(   13) = (   0.4285714   0.0000000   0.0000000), wk =   0.0400000
        k(   14) = (   0.4642857  -0.0000000   0.0000000), wk =   0.0400000
        k(   15) = (   0.5000000  -0.0000000   0.0000000), wk =   0.0400000
        k(   16) = (   0.4791667   0.0416667   0.0000000), wk =   0.0400000
        k(   17) = (   0.4583333   0.0833333   0.0000000), wk =   0.0400000
        k(   18) = (   0.4375000   0.1250000   0.0000000), wk =   0.0400000
        k(   19) = (   0.4166667   0.1666667   0.0000000), wk =   0.0400000
        k(   20) = (   0.3958333   0.2083333   0.0000000), wk =   0.0400000
        k(   21) = (   0.3750000   0.2500000   0.0000000), wk =   0.0400000
        k(   22) = (   0.3541667   0.2916667   0.0000000), wk =   0.0400000
        k(   23) = (   0.3333333   0.3333333   0.0000000), wk =   0.0400000
        k(   24) = (   0.3148148   0.3148148   0.0000000), wk =   0.0400000
        k(   25) = (   0.2962963   0.2962963   0.0000000), wk =   0.0400000
        k(   26) = (   0.2777778   0.2777778   0.0000000), wk =   0.0400000
        k(   27) = (   0.2592593   0.2592593   0.0000000), wk =   0.0400000
        k(   28) = (   0.2407407   0.2407407   0.0000000), wk =   0.0400000
        k(   29) = (   0.2222222   0.2222222   0.0000000), wk =   0.0400000
        k(   30) = (   0.2037037   0.2037037   0.0000000), wk =   0.0400000
        k(   31) = (   0.1851852   0.1851852   0.0000000), wk =   0.0400000
        k(   32) = (   0.1666667   0.1666667   0.0000000), wk =   0.0400000
        k(   33) = (   0.1481481   0.1481481   0.0000000), wk =   0.0400000
        k(   34) = (   0.1296296   0.1296296   0.0000000), wk =   0.0400000
        k(   35) = (   0.1111111   0.1111111   0.0000000), wk =   0.0400000
        k(   36) = (   0.0925926   0.0925926   0.0000000), wk =   0.0400000
        k(   37) = (   0.0740741   0.0740741   0.0000000), wk =   0.0400000
        k(   38) = (   0.0555556   0.0555556   0.0000000), wk =   0.0400000
        k(   39) = (   0.0370370   0.0370370   0.0000000), wk =   0.0400000
        k(   40) = (   0.0185185   0.0185185   0.0000000), wk =   0.0400000
        k(   41) = (   0.0000000   0.0000000   0.0000000), wk =   0.0400000
        k(   42) = (   0.0000000   0.0000000   0.0555556), wk =   0.0400000
        k(   43) = (   0.0000000   0.0000000   0.1111111), wk =   0.0400000
        k(   44) = (   0.0000000   0.0000000   0.1666667), wk =   0.0400000
        k(   45) = (   0.0000000   0.0000000   0.2222222), wk =   0.0400000
        k(   46) = (   0.0000000   0.0000000   0.2777778), wk =   0.0400000
        k(   47) = (   0.0000000   0.0000000   0.3333333), wk =   0.0400000
        k(   48) = (   0.0000000   0.0000000   0.3888889), wk =   0.0400000
        k(   49) = (   0.0000000   0.0000000   0.4444444), wk =   0.0400000
        k(   50) = (   0.0000000   0.0000000   0.5000000), wk =   0.0400000

     Dense  grid:     5203 G-vectors     FFT dimensions: (  20,  20,  32)

     Smooth grid:     3741 G-vectors     FFT dimensions: (  18,  18,  27)

     Estimated max dynamical RAM per process >       5.02Mb

     The potential is recalculated from file :
     ./pwscf.save/charge-density.dat

     Starting wfc are    8 randomized atomic wfcs

     Band Structure Calculation
     Davidson diagonalization with overlap

     Computing kpt #:     1
     total cpu time spent up to now is        0.3 secs

     Computing kpt #:     2
     total cpu time spent up to now is        0.4 secs

     Computing kpt #:     3
     total cpu time spent up to now is        0.4 secs

     Computing kpt #:     4
     total cpu time spent up to now is        0.5 secs

     Computing kpt #:     5
     total cpu time spent up to now is        0.6 secs

     Computing kpt #:     6
     total cpu time spent up to now is        0.7 secs

     Computing kpt #:     7
     total cpu time spent up to now is        0.7 secs

     Computing kpt #:     8
     total cpu time spent up to now is        0.8 secs

     Computing kpt #:     9
     total cpu time spent up to now is        0.9 secs

     Computing kpt #:    10
     total cpu time spent up to now is        1.0 secs

     Computing kpt #:    11
     total cpu time spent up to now is        1.1 secs

     Computing kpt #:    12
     total cpu time spent up to now is        1.1 secs

     Computing kpt #:    13
     total cpu time spent up to now is        1.2 secs

     Computing kpt #:    14
     total cpu time spent up to now is        1.3 secs

     Computing kpt #:    15
     total cpu time spent up to now is        1.4 secs

     Computing kpt #:    16
     total cpu time spent up to now is        1.5 secs

     Computing kpt #:    17
     total cpu time spent up to now is        1.5 secs

     Computing kpt #:    18
     total cpu time spent up to now is        1.6 secs

     Computing kpt #:    19
     total cpu time spent up to now is        1.7 secs

     Computing kpt #:    20
     total cpu time spent up to now is        1.8 secs

     Computing kpt #:    21
     total cpu time spent up to now is        1.9 secs

     Computing kpt #:    22
     total cpu time spent up to now is        1.9 secs

     Computing kpt #:    23
     total cpu time spent up to now is        2.0 secs

     Computing kpt #:    24
     total cpu time spent up to now is        2.1 secs

     Computing kpt #:    25
     total cpu time spent up to now is        2.1 secs

     Computing kpt #:    26
     total cpu time spent up to now is        2.2 secs

     Computing kpt #:    27
     total cpu time spent up to now is        2.3 secs

     Computing kpt #:    28
     total cpu time spent up to now is        2.4 secs

     Computing kpt #:    29
     total cpu time spent up to now is        2.5 secs

     Computing kpt #:    30
     total cpu time spent up to now is        2.5 secs

     Computing kpt #:    31
     total cpu time spent up to now is        2.6 secs

     Computing kpt #:    32
     total cpu time spent up to now is        2.7 secs

     Computing kpt #:    33
     total cpu time spent up to now is        2.8 secs

     Computing kpt #:    34
     total cpu time spent up to now is        2.9 secs

     Computing kpt #:    35
     total cpu time spent up to now is        3.0 secs

     Computing kpt #:    36
     total cpu time spent up to now is        3.0 secs

     Computing kpt #:    37
     total cpu time spent up to now is        3.1 secs

     Computing kpt #:    38
     total cpu time spent up to now is        3.2 secs

     Computing kpt #:    39
     total cpu time spent up to now is        3.3 secs

     Computing kpt #:    40
     total cpu time spent up to now is        3.4 secs

     Computing kpt #:    41
     total cpu time spent up to now is        3.4 secs

     Computing kpt #:    42
     total cpu time spent up to now is        3.5 secs

     Computing kpt #:    43
     total cpu time spent up to now is        3.6 secs

     Computing kpt #:    44
     total cpu time spent up to now is        3.7 secs

     Computing kpt #:    45
     total cpu time spent up to now is        3.8 secs

     Computing kpt #:    46
     total cpu time spent up to now is        3.8 secs

     Computing kpt #:    47
     total cpu time spent up to now is        3.9 secs

     Computing kpt #:    48
     total cpu time spent up to now is        4.0 secs

     Computing kpt #:    49
     total cpu time spent up to now is        4.1 secs

     Computing kpt #:    50
     total cpu time spent up to now is        4.2 secs

     ethr =  1.25E-09,  avg # of iterations =  7.0

     total cpu time spent up to now is        4.2 secs

     End of band structure calculation

          k = 0.0000 0.0000 0.0000 (   463 PWs)   bands (ev):

    -8.6324   0.3958   1.3564  13.9510  13.9510  15.6867  15.6867  16.4975

          k = 0.0357 0.0206 0.0000 (   475 PWs)   bands (ev):

    -8.5916   0.4297   1.3970  13.7791  13.8764  15.6243  15.6910  16.4708

          k = 0.0714 0.0412 0.0000 (   469 PWs)   bands (ev):

    -8.4692   0.5310   1.5185  13.2892  13.6717  15.4336  15.6931  16.3901

          k = 0.1071 0.0619 0.0000 (   473 PWs)   bands (ev):

    -8.2653   0.6993   1.7203  12.5343  13.3734  15.1095  15.6715  16.2492

          k = 0.1429 0.0825 0.0000 (   473 PWs)   bands (ev):

    -7.9804   0.9338   2.0011  11.5760  13.0192  14.6606  15.6115  16.0417

          k = 0.1786 0.1031 0.0000 (   463 PWs)   bands (ev):

    -7.6149   1.2330   2.3590  10.4719  12.6386  14.1012  15.5130  15.7597

          k = 0.2143 0.1237 0.0000 (   465 PWs)   bands (ev):

    -7.1694   1.5944   2.7911   9.2709  12.2547  13.4485  15.3817  15.3936

          k = 0.2500 0.1443 0.0000 (   468 PWs)   bands (ev):

    -6.6450   2.0135   3.2935   8.0170  11.8851  12.7209  14.9370  15.2296

          k = 0.2857 0.1650 0.0000 (   470 PWs)   bands (ev):

    -6.0428   2.4793   3.8604   6.7517  11.5431  11.9347  14.3884  15.0694

          k = 0.3214 0.1856 0.0000 (   466 PWs)   bands (ev):

    -5.3648   2.9552   4.4831   5.5352  11.1065  11.2392  13.7550  14.9132

          k = 0.3571 0.2062 0.0000 (   468 PWs)   bands (ev):

    -4.6137   3.2127   4.6129   5.1475  10.2515  10.9809  13.0558  14.7712

          k = 0.3929 0.2268 0.0000 (   462 PWs)   bands (ev):

    -3.7946   2.5598   4.6911   5.8295   9.3849  10.7747  12.3262  14.6529

          k = 0.4286 0.2474 0.0000 (   460 PWs)   bands (ev):

    -2.9185   1.4917   5.2882   6.4815   8.5223  10.6246  11.6270  14.5634

          k = 0.4643 0.2681 0.0000 (   458 PWs)   bands (ev):

    -2.0261   0.4467   5.9983   7.0039   7.6850  10.5334  11.0706  14.5080

          k = 0.5000 0.2887 0.0000 (   460 PWs)   bands (ev):

    -1.4479  -0.1856   6.5801   7.0631   7.2187  10.5030  10.8433  14.4890

          k = 0.4792 0.3248 0.0000 (   462 PWs)   bands (ev):

    -1.4104  -0.1483   6.5898   7.0977   7.2561  10.2748  10.8405  14.3576

          k = 0.4583 0.3608 0.0000 (   468 PWs)   bands (ev):

    -1.2980  -0.0374   6.6053   7.2013   7.3683   9.6680  10.8286  13.9785

          k = 0.4375 0.3969 0.0000 (   464 PWs)   bands (ev):

    -1.1111   0.1442   6.5627   7.3729   7.5543   8.8838  10.7954  13.3953

          k = 0.4167 0.4330 0.0000 (   464 PWs)   bands (ev):

    -0.8503   0.3899   6.2681   7.6110   7.8124   8.2484  10.7207  12.6589

          k = 0.3958 0.4691 0.0000 (   464 PWs)   bands (ev):

    -0.5168   0.6842   5.5301   7.9126   8.0568   8.1403  10.5784  11.8214

          k = 0.3750 0.5052 0.0000 (   468 PWs)   bands (ev):

    -0.1121   0.9864   4.5652   8.1877   8.2721   8.5346  10.3403  10.9289

          k = 0.3542 0.5413 0.0000 (   468 PWs)   bands (ev):

     0.3615   1.1657   3.7063   8.4718   8.6715   8.9912   9.9846  10.0305

          k = 0.3333 0.5774 0.0000 (   462 PWs)   bands (ev):

     0.9007   0.9008   3.3559   8.8456   8.8456   9.4137   9.5047   9.5048

          k = 0.3148 0.5453 0.0000 (   470 PWs)   bands (ev):

     0.2242   1.4306   3.5663   8.1947   8.9825   9.2330   9.7311  10.0033

          k = 0.2963 0.5132 0.0000 (   470 PWs)   bands (ev):

    -0.6235   2.0006   4.0352   7.4483   8.3890   9.6628  10.2120  10.5355

          k = 0.2778 0.4811 0.0000 (   470 PWs)   bands (ev):

    -1.5051   2.5962   4.6305   6.7421   7.7462  10.1278  10.7346  11.0943

          k = 0.2593 0.4491 0.0000 (   470 PWs)   bands (ev):

    -2.3704   3.1797   5.3033   6.1276   7.0768  10.6208  11.2809  11.6710

          k = 0.2407 0.4170 0.0000 (   474 PWs)   bands (ev):

    -3.1987   3.6365   5.7231   6.0319   6.4006  11.1344  11.8394  12.2561

          k = 0.2222 0.3849 0.0000 (   480 PWs)   bands (ev):

    -3.9796   3.7181   5.7345   5.7784   6.8028  11.6595  12.3986  12.8384

          k = 0.2037 0.3528 0.0000 (   480 PWs)   bands (ev):

    -4.7073   3.4149   5.0917   6.3019   7.6050  12.1858  12.9469  13.4062

          k = 0.1852 0.3208 0.0000 (   472 PWs)   bands (ev):

    -5.3780   2.9774   4.4826   7.0399   8.4277  12.7019  13.4715  13.9473

          k = 0.1667 0.2887 0.0000 (   469 PWs)   bands (ev):

    -5.9893   2.5255   3.9153   7.8668   9.2583  13.1952  13.9591  14.4503

          k = 0.1481 0.2566 0.0000 (   473 PWs)   bands (ev):

    -6.5395   2.0979   3.3958   8.7361  10.0826  13.6547  14.3975  14.9044

          k = 0.1296 0.2245 0.0000 (   465 PWs)   bands (ev):

    -7.0271   1.7093   2.9291   9.6227  10.8833  14.0722  14.7781  15.3029

          k = 0.1111 0.1925 0.0000 (   467 PWs)   bands (ev):

    -7.4512   1.3663   2.5186  10.5044  11.6386  14.4430  15.0934  15.6410

          k = 0.0926 0.1604 0.0000 (   469 PWs)   bands (ev):

    -7.8112   1.0726   2.1673  11.3578  12.3238  14.7682  15.3396  15.9181

          k = 0.0741 0.1283 0.0000 (   467 PWs)   bands (ev):

    -8.1063   0.8303   1.8773  12.1549  12.9106  15.0530  15.5173  16.1364

          k = 0.0556 0.0962 0.0000 (   475 PWs)   bands (ev):

    -8.3363   0.6408   1.6502  12.8603  13.3739  15.2995  15.6279  16.2987

          k = 0.0370 0.0642 0.0000 (   469 PWs)   bands (ev):

    -8.5007   0.5049   1.4872  13.4311  13.6996  15.5016  15.6795  16.4111

          k = 0.0185 0.0321 0.0000 (   475 PWs)   bands (ev):

    -8.5995   0.4231   1.3891  13.8134  13.8888  15.6377  15.6891  16.4760

          k = 0.0000 0.0000 0.0000 (   463 PWs)   bands (ev):

    -8.6324   0.3958   1.3564  13.9510  13.9510  15.6867  15.6867  16.4975

          k = 0.0000 0.0000 0.0354 (   469 PWs)   bands (ev):

    -8.6022  -0.2189   2.0128  13.9631  13.9631  15.6734  15.6734  16.4196

          k = 0.0000 0.0000 0.0709 (   469 PWs)   bands (ev):

    -8.5115  -1.1080   3.0263  14.0015  14.0015  15.6344  15.6344  16.1842

          k = 0.0000 0.0000 0.1063 (   475 PWs)   bands (ev):

    -8.3605  -1.9826   4.1055  14.0641  14.0641  15.5705  15.5705  15.7958

          k = 0.0000 0.0000 0.1417 (   476 PWs)   bands (ev):

    -8.1492  -2.8158   5.2197  14.1496  14.1496  15.2622  15.4835  15.4835

          k = 0.0000 0.0000 0.1772 (   482 PWs)   bands (ev):

    -7.8779  -3.6004   6.3554  14.2552  14.2552  14.5930  15.3759  15.3759

          k = 0.0000 0.0000 0.2126 (   488 PWs)   bands (ev):

    -7.5469  -4.3329   7.5017  13.8022  14.3779  14.3779  15.2509  15.2509

          k = 0.0000 0.0000 0.2480 (   488 PWs)   bands (ev):

    -7.1564  -5.0110   8.6464  12.9064  14.5148  14.5148  15.1125  15.1125

          k = 0.0000 0.0000 0.2835 (   494 PWs)   bands (ev):

    -6.7070  -5.6335   9.7756  11.9236  14.6612  14.6612  14.9649  14.9649

          k = 0.0000 0.0000 0.3189 (   494 PWs)   bands (ev):

    -6.1991  -6.1991  10.8739  10.8739  14.8128  14.8128  14.8130  14.8130

     Writing output data file pwscf.save

     init_run     :      0.12s CPU      0.14s WALL (       1 calls)
     electrons    :      7.72s CPU      3.94s WALL (       1 calls)

     Called by init_run:
     wfcinit      :      0.00s CPU      0.00s WALL (       1 calls)
     wfcinit:atom :      0.00s CPU      0.01s WALL (      50 calls)
     wfcinit:wfcr :      0.89s CPU      0.40s WALL (      50 calls)
     potinit      :      0.02s CPU      0.02s WALL (       1 calls)

     Called by electrons:
     c_bands      :      7.72s CPU      3.94s WALL (       1 calls)
     v_of_rho     :      0.02s CPU      0.01s WALL (       1 calls)
     v_h          :      0.00s CPU      0.00s WALL (       1 calls)
     v_xc         :      0.02s CPU      0.01s WALL (       1 calls)
     newd         :      0.00s CPU      0.01s WALL (       1 calls)

     Called by c_bands:
     init_us_2    :      0.00s CPU      0.01s WALL (      50 calls)
     cegterg      :      6.73s CPU      3.43s WALL (      50 calls)

     Called by sum_band:

     Called by *egterg:
     h_psi        :      6.23s CPU      3.12s WALL (     449 calls)
     s_psi        :      0.00s CPU      0.04s WALL (     449 calls)
     g_psi        :      0.02s CPU      0.02s WALL (     349 calls)
     cdiaghg      :      0.52s CPU      0.38s WALL (     399 calls)
     cegterg:over :      0.31s CPU      0.08s WALL (     349 calls)
     cegterg:upda :      0.27s CPU      0.06s WALL (     349 calls)
     cegterg:last :      0.11s CPU      0.05s WALL (     146 calls)

     Called by h_psi:
     h_psi:pot    :      6.20s CPU      3.10s WALL (     449 calls)
     h_psi:calbec :      0.06s CPU      0.05s WALL (     449 calls)
     vloc_psi     :      5.97s CPU      2.99s WALL (     449 calls)
     add_vuspsi   :      0.17s CPU      0.04s WALL (     449 calls)

     General routines
     calbec       :      0.06s CPU      0.05s WALL (     449 calls)
     fft          :      0.02s CPU      0.00s WALL (      13 calls)
     ffts         :      0.00s CPU      0.00s WALL (       1 calls)
     fftw         :      5.72s CPU      2.79s WALL (    6718 calls)
     interpolate  :      0.00s CPU      0.00s WALL (       1 calls)
     davcio       :      0.00s CPU      0.00s WALL (      50 calls)

     Parallel routines
     fft_scatter  :      0.33s CPU      0.11s WALL (    6732 calls)

     PWSCF        :     8.16s CPU         4.43s WALL


   This run was terminated on:  11: 4:47  25Feb2021            

=------------------------------------------------------------------------------=
   JOB DONE.
=------------------------------------------------------------------------------=
