
     Program PWSCF v.6.0 (svn rev. 13079) starts on 25Feb2021 at 18:25:31 

     This program is part of the open-source Quantum ESPRESSO suite
     for quantum simulation of materials; please cite
         "P. Giannozzi et al., J. Phys.:Condens. Matter 21 395502 (2009);
          URL http://www.quantum-espresso.org", 
     in publications or presentations arising from this work. More details at
     http://www.quantum-espresso.org/quote

     Parallel version (MPI), running on     1 processors
     Reading input from espresso.pwi
Warning: card &IONS ignored
Warning: card / ignored
Warning: card &CELL ignored
Warning: card / ignored

     Current dimensions of program PWSCF are:
     Max number of different atomic species (ntypx) = 10
     Max number of k-points (npk) =  40000
     Max angular momentum in pseudopotentials (lmaxx) =  3
     Message from routine input:
     WARNING: "startingwfc" set to atomic+random may spoil restart

     Atomic positions and unit cell read from directory:
     ./pwscf.save/


     IMPORTANT: XC functional enforced from input :
     Exchange-correlation      = PBE ( 1  4  3  4 0 0)
     Any further DFT definition will be discarded
     Please, verify this is what you really want


     Subspace diagonalization in iterative solution of the eigenvalue problem:
     a serial algorithm will be used


     G-vector sticks info
     --------------------
     sticks:   dense  smooth     PW     G-vecs:    dense   smooth      PW
     Sum         399     315    103                 5017     3559     683



     bravais-lattice index     =            0
     lattice parameter (alat)  =       5.1502  a.u.
     unit-cell volume          =     105.1615 (a.u.)^3
     number of atoms/cell      =            1
     number of atomic types    =            1
     number of electrons       =        14.00
     number of Kohn-Sham states=           11
     kinetic-energy cutoff     =      40.0000  Ry
     charge density cutoff     =     200.0000  Ry
     Exchange-correlation      = PBE ( 1  4  3  4 0 0)

     celldm(1)=   5.150225  celldm(2)=   0.000000  celldm(3)=   0.000000
     celldm(4)=   0.000000  celldm(5)=   0.000000  celldm(6)=   0.000000

     crystal axes: (cart. coord. in units of alat)
               a(1) = (  -0.577350   0.577350   0.577350 )  
               a(2) = (   0.577350  -0.577350   0.577350 )  
               a(3) = (   0.577350   0.577350  -0.577350 )  

     reciprocal axes: (cart. coord. in units 2 pi/alat)
               b(1) = (  0.000000  0.866025  0.866025 )  
               b(2) = (  0.866025  0.000000  0.866025 )  
               b(3) = (  0.866025  0.866025  0.000000 )  


     PseudoPot. # 1 for Mo read from file:
     /home/inukai/tango/tests/1element/qe_fit_v2_Mo/../pseudo/mo_pbe_v1.uspp.F.UPF
     MD5 check sum: 30c4dcd161f5d35cd49bb5239c51a633
     Pseudo is Ultrasoft + core correction, Zval = 14.0
     Generated by new atomic code, or converted to UPF format
     Using radial grid of  889 points,  6 beta functions with: 
                l(1) =   0
                l(2) =   0
                l(3) =   1
                l(4) =   1
                l(5) =   2
                l(6) =   2
     Q(r) pseudized with  6 coefficients,  rinner =    1.000   1.000   1.000
                                                       1.000   1.000

     atomic species   valence    mass     pseudopotential
        Mo            14.00    95.95000     Mo( 1.00)

     48 Sym. Ops., with inversion, found


                                    s                        frac. trans.

      isym =  1     identity                                     

 cryst.   s( 1) = (     1          0          0      )
                  (     0          1          0      )
                  (     0          0          1      )

 cart.    s( 1) = (  1.0000000  0.0000000  0.0000000 )
                  (  0.0000000  1.0000000  0.0000000 )
                  (  0.0000000  0.0000000  1.0000000 )


      isym =  2     180 deg rotation - cart. axis [0,0,1]        

 cryst.   s( 2) = (     0          1          0      )
                  (     1          0          0      )
                  (    -1         -1         -1      )

 cart.    s( 2) = ( -1.0000000  0.0000000  0.0000000 )
                  (  0.0000000 -1.0000000  0.0000000 )
                  (  0.0000000  0.0000000  1.0000000 )


      isym =  3     180 deg rotation - cart. axis [0,1,0]        

 cryst.   s( 3) = (     0          0          1      )
                  (    -1         -1         -1      )
                  (     1          0          0      )

 cart.    s( 3) = ( -1.0000000  0.0000000  0.0000000 )
                  (  0.0000000  1.0000000  0.0000000 )
                  (  0.0000000  0.0000000 -1.0000000 )


      isym =  4     180 deg rotation - cart. axis [1,0,0]        

 cryst.   s( 4) = (    -1         -1         -1      )
                  (     0          0          1      )
                  (     0          1          0      )

 cart.    s( 4) = (  1.0000000  0.0000000  0.0000000 )
                  (  0.0000000 -1.0000000  0.0000000 )
                  (  0.0000000  0.0000000 -1.0000000 )


      isym =  5     180 deg rotation - cart. axis [1,1,0]        

 cryst.   s( 5) = (    -1          0          0      )
                  (     0         -1          0      )
                  (     1          1          1      )

 cart.    s( 5) = (  0.0000000  1.0000000  0.0000000 )
                  (  1.0000000  0.0000000  0.0000000 )
                  (  0.0000000  0.0000000 -1.0000000 )


      isym =  6     180 deg rotation - cart. axis [1,-1,0]       

 cryst.   s( 6) = (     0         -1          0      )
                  (    -1          0          0      )
                  (     0          0         -1      )

 cart.    s( 6) = (  0.0000000 -1.0000000  0.0000000 )
                  ( -1.0000000  0.0000000  0.0000000 )
                  (  0.0000000  0.0000000 -1.0000000 )


      isym =  7      90 deg rotation - cart. axis [0,0,-1]       

 cryst.   s( 7) = (     1          1          1      )
                  (     0          0         -1      )
                  (    -1          0          0      )

 cart.    s( 7) = (  0.0000000  1.0000000  0.0000000 )
                  ( -1.0000000  0.0000000  0.0000000 )
                  (  0.0000000  0.0000000  1.0000000 )


      isym =  8      90 deg rotation - cart. axis [0,0,1]        

 cryst.   s( 8) = (     0          0         -1      )
                  (     1          1          1      )
                  (     0         -1          0      )

 cart.    s( 8) = (  0.0000000 -1.0000000  0.0000000 )
                  (  1.0000000  0.0000000  0.0000000 )
                  (  0.0000000  0.0000000  1.0000000 )


      isym =  9     180 deg rotation - cart. axis [1,0,1]        

 cryst.   s( 9) = (    -1          0          0      )
                  (     1          1          1      )
                  (     0          0         -1      )

 cart.    s( 9) = (  0.0000000  0.0000000  1.0000000 )
                  (  0.0000000 -1.0000000  0.0000000 )
                  (  1.0000000  0.0000000  0.0000000 )


      isym = 10     180 deg rotation - cart. axis [-1,0,1]       

 cryst.   s(10) = (     0          0         -1      )
                  (     0         -1          0      )
                  (    -1          0          0      )

 cart.    s(10) = (  0.0000000  0.0000000 -1.0000000 )
                  (  0.0000000 -1.0000000  0.0000000 )
                  ( -1.0000000  0.0000000  0.0000000 )


      isym = 11      90 deg rotation - cart. axis [0,1,0]        

 cryst.   s(11) = (     1          1          1      )
                  (    -1          0          0      )
                  (     0         -1          0      )

 cart.    s(11) = (  0.0000000  0.0000000  1.0000000 )
                  (  0.0000000  1.0000000  0.0000000 )
                  ( -1.0000000  0.0000000  0.0000000 )


      isym = 12      90 deg rotation - cart. axis [0,-1,0]       

 cryst.   s(12) = (     0         -1          0      )
                  (     0          0         -1      )
                  (     1          1          1      )

 cart.    s(12) = (  0.0000000  0.0000000 -1.0000000 )
                  (  0.0000000  1.0000000  0.0000000 )
                  (  1.0000000  0.0000000  0.0000000 )


      isym = 13     180 deg rotation - cart. axis [0,1,1]        

 cryst.   s(13) = (     1          1          1      )
                  (     0         -1          0      )
                  (     0          0         -1      )

 cart.    s(13) = ( -1.0000000  0.0000000  0.0000000 )
                  (  0.0000000  0.0000000  1.0000000 )
                  (  0.0000000  1.0000000  0.0000000 )


      isym = 14     180 deg rotation - cart. axis [0,1,-1]       

 cryst.   s(14) = (    -1          0          0      )
                  (     0          0         -1      )
                  (     0         -1          0      )

 cart.    s(14) = ( -1.0000000  0.0000000  0.0000000 )
                  (  0.0000000  0.0000000 -1.0000000 )
                  (  0.0000000 -1.0000000  0.0000000 )


      isym = 15      90 deg rotation - cart. axis [-1,0,0]       

 cryst.   s(15) = (     0         -1          0      )
                  (     1          1          1      )
                  (    -1          0          0      )

 cart.    s(15) = (  1.0000000  0.0000000  0.0000000 )
                  (  0.0000000  0.0000000  1.0000000 )
                  (  0.0000000 -1.0000000  0.0000000 )


      isym = 16      90 deg rotation - cart. axis [1,0,0]        

 cryst.   s(16) = (     0          0         -1      )
                  (    -1          0          0      )
                  (     1          1          1      )

 cart.    s(16) = (  1.0000000  0.0000000  0.0000000 )
                  (  0.0000000  0.0000000 -1.0000000 )
                  (  0.0000000  1.0000000  0.0000000 )


      isym = 17     120 deg rotation - cart. axis [-1,-1,-1]     

 cryst.   s(17) = (     0          0          1      )
                  (     1          0          0      )
                  (     0          1          0      )

 cart.    s(17) = (  0.0000000  1.0000000  0.0000000 )
                  (  0.0000000  0.0000000  1.0000000 )
                  (  1.0000000  0.0000000  0.0000000 )


      isym = 18     120 deg rotation - cart. axis [-1,1,1]       

 cryst.   s(18) = (     1          0          0      )
                  (     0          0          1      )
                  (    -1         -1         -1      )

 cart.    s(18) = (  0.0000000 -1.0000000  0.0000000 )
                  (  0.0000000  0.0000000  1.0000000 )
                  ( -1.0000000  0.0000000  0.0000000 )


      isym = 19     120 deg rotation - cart. axis [1,1,-1]       

 cryst.   s(19) = (     0          1          0      )
                  (    -1         -1         -1      )
                  (     0          0          1      )

 cart.    s(19) = (  0.0000000  1.0000000  0.0000000 )
                  (  0.0000000  0.0000000 -1.0000000 )
                  ( -1.0000000  0.0000000  0.0000000 )


      isym = 20     120 deg rotation - cart. axis [1,-1,1]       

 cryst.   s(20) = (    -1         -1         -1      )
                  (     0          1          0      )
                  (     1          0          0      )

 cart.    s(20) = (  0.0000000 -1.0000000  0.0000000 )
                  (  0.0000000  0.0000000 -1.0000000 )
                  (  1.0000000  0.0000000  0.0000000 )


      isym = 21     120 deg rotation - cart. axis [1,1,1]        

 cryst.   s(21) = (     0          1          0      )
                  (     0          0          1      )
                  (     1          0          0      )

 cart.    s(21) = (  0.0000000  0.0000000  1.0000000 )
                  (  1.0000000  0.0000000  0.0000000 )
                  (  0.0000000  1.0000000  0.0000000 )


      isym = 22     120 deg rotation - cart. axis [-1,1,-1]      

 cryst.   s(22) = (     0          0          1      )
                  (     0          1          0      )
                  (    -1         -1         -1      )

 cart.    s(22) = (  0.0000000  0.0000000  1.0000000 )
                  ( -1.0000000  0.0000000  0.0000000 )
                  (  0.0000000 -1.0000000  0.0000000 )


      isym = 23     120 deg rotation - cart. axis [1,-1,-1]      

 cryst.   s(23) = (     1          0          0      )
                  (    -1         -1         -1      )
                  (     0          1          0      )

 cart.    s(23) = (  0.0000000  0.0000000 -1.0000000 )
                  ( -1.0000000  0.0000000  0.0000000 )
                  (  0.0000000  1.0000000  0.0000000 )


      isym = 24     120 deg rotation - cart. axis [-1,-1,1]      

 cryst.   s(24) = (    -1         -1         -1      )
                  (     1          0          0      )
                  (     0          0          1      )

 cart.    s(24) = (  0.0000000  0.0000000 -1.0000000 )
                  (  1.0000000  0.0000000  0.0000000 )
                  (  0.0000000 -1.0000000  0.0000000 )


      isym = 25     inversion                                    

 cryst.   s(25) = (    -1          0          0      )
                  (     0         -1          0      )
                  (     0          0         -1      )

 cart.    s(25) = ( -1.0000000  0.0000000  0.0000000 )
                  (  0.0000000 -1.0000000  0.0000000 )
                  (  0.0000000  0.0000000 -1.0000000 )


      isym = 26     inv. 180 deg rotation - cart. axis [0,0,1]   

 cryst.   s(26) = (     0         -1          0      )
                  (    -1          0          0      )
                  (     1          1          1      )

 cart.    s(26) = (  1.0000000  0.0000000  0.0000000 )
                  (  0.0000000  1.0000000  0.0000000 )
                  (  0.0000000  0.0000000 -1.0000000 )


      isym = 27     inv. 180 deg rotation - cart. axis [0,1,0]   

 cryst.   s(27) = (     0          0         -1      )
                  (     1          1          1      )
                  (    -1          0          0      )

 cart.    s(27) = (  1.0000000  0.0000000  0.0000000 )
                  (  0.0000000 -1.0000000  0.0000000 )
                  (  0.0000000  0.0000000  1.0000000 )


      isym = 28     inv. 180 deg rotation - cart. axis [1,0,0]   

 cryst.   s(28) = (     1          1          1      )
                  (     0          0         -1      )
                  (     0         -1          0      )

 cart.    s(28) = ( -1.0000000  0.0000000  0.0000000 )
                  (  0.0000000  1.0000000  0.0000000 )
                  (  0.0000000  0.0000000  1.0000000 )


      isym = 29     inv. 180 deg rotation - cart. axis [1,1,0]   

 cryst.   s(29) = (     1          0          0      )
                  (     0          1          0      )
                  (    -1         -1         -1      )

 cart.    s(29) = (  0.0000000 -1.0000000  0.0000000 )
                  ( -1.0000000  0.0000000  0.0000000 )
                  (  0.0000000  0.0000000  1.0000000 )


      isym = 30     inv. 180 deg rotation - cart. axis [1,-1,0]  

 cryst.   s(30) = (     0          1          0      )
                  (     1          0          0      )
                  (     0          0          1      )

 cart.    s(30) = (  0.0000000  1.0000000  0.0000000 )
                  (  1.0000000  0.0000000  0.0000000 )
                  (  0.0000000  0.0000000  1.0000000 )


      isym = 31     inv.  90 deg rotation - cart. axis [0,0,-1]  

 cryst.   s(31) = (    -1         -1         -1      )
                  (     0          0          1      )
                  (     1          0          0      )

 cart.    s(31) = (  0.0000000 -1.0000000  0.0000000 )
                  (  1.0000000  0.0000000  0.0000000 )
                  (  0.0000000  0.0000000 -1.0000000 )


      isym = 32     inv.  90 deg rotation - cart. axis [0,0,1]   

 cryst.   s(32) = (     0          0          1      )
                  (    -1         -1         -1      )
                  (     0          1          0      )

 cart.    s(32) = (  0.0000000  1.0000000  0.0000000 )
                  ( -1.0000000  0.0000000  0.0000000 )
                  (  0.0000000  0.0000000 -1.0000000 )


      isym = 33     inv. 180 deg rotation - cart. axis [1,0,1]   

 cryst.   s(33) = (     1          0          0      )
                  (    -1         -1         -1      )
                  (     0          0          1      )

 cart.    s(33) = (  0.0000000  0.0000000 -1.0000000 )
                  (  0.0000000  1.0000000  0.0000000 )
                  ( -1.0000000  0.0000000  0.0000000 )


      isym = 34     inv. 180 deg rotation - cart. axis [-1,0,1]  

 cryst.   s(34) = (     0          0          1      )
                  (     0          1          0      )
                  (     1          0          0      )

 cart.    s(34) = (  0.0000000  0.0000000  1.0000000 )
                  (  0.0000000  1.0000000  0.0000000 )
                  (  1.0000000  0.0000000  0.0000000 )


      isym = 35     inv.  90 deg rotation - cart. axis [0,1,0]   

 cryst.   s(35) = (    -1         -1         -1      )
                  (     1          0          0      )
                  (     0          1          0      )

 cart.    s(35) = (  0.0000000  0.0000000 -1.0000000 )
                  (  0.0000000 -1.0000000  0.0000000 )
                  (  1.0000000  0.0000000  0.0000000 )


      isym = 36     inv.  90 deg rotation - cart. axis [0,-1,0]  

 cryst.   s(36) = (     0          1          0      )
                  (     0          0          1      )
                  (    -1         -1         -1      )

 cart.    s(36) = (  0.0000000  0.0000000  1.0000000 )
                  (  0.0000000 -1.0000000  0.0000000 )
                  ( -1.0000000  0.0000000  0.0000000 )


      isym = 37     inv. 180 deg rotation - cart. axis [0,1,1]   

 cryst.   s(37) = (    -1         -1         -1      )
                  (     0          1          0      )
                  (     0          0          1      )

 cart.    s(37) = (  1.0000000  0.0000000  0.0000000 )
                  (  0.0000000  0.0000000 -1.0000000 )
                  (  0.0000000 -1.0000000  0.0000000 )


      isym = 38     inv. 180 deg rotation - cart. axis [0,1,-1]  

 cryst.   s(38) = (     1          0          0      )
                  (     0          0          1      )
                  (     0          1          0      )

 cart.    s(38) = (  1.0000000  0.0000000  0.0000000 )
                  (  0.0000000  0.0000000  1.0000000 )
                  (  0.0000000  1.0000000  0.0000000 )


      isym = 39     inv.  90 deg rotation - cart. axis [-1,0,0]  

 cryst.   s(39) = (     0          1          0      )
                  (    -1         -1         -1      )
                  (     1          0          0      )

 cart.    s(39) = ( -1.0000000  0.0000000  0.0000000 )
                  (  0.0000000  0.0000000 -1.0000000 )
                  (  0.0000000  1.0000000  0.0000000 )


      isym = 40     inv.  90 deg rotation - cart. axis [1,0,0]   

 cryst.   s(40) = (     0          0          1      )
                  (     1          0          0      )
                  (    -1         -1         -1      )

 cart.    s(40) = ( -1.0000000  0.0000000  0.0000000 )
                  (  0.0000000  0.0000000  1.0000000 )
                  (  0.0000000 -1.0000000  0.0000000 )


      isym = 41     inv. 120 deg rotation - cart. axis [-1,-1,-1]

 cryst.   s(41) = (     0          0         -1      )
                  (    -1          0          0      )
                  (     0         -1          0      )

 cart.    s(41) = (  0.0000000 -1.0000000  0.0000000 )
                  (  0.0000000  0.0000000 -1.0000000 )
                  ( -1.0000000  0.0000000  0.0000000 )


      isym = 42     inv. 120 deg rotation - cart. axis [-1,1,1]  

 cryst.   s(42) = (    -1          0          0      )
                  (     0          0         -1      )
                  (     1          1          1      )

 cart.    s(42) = (  0.0000000  1.0000000  0.0000000 )
                  (  0.0000000  0.0000000 -1.0000000 )
                  (  1.0000000  0.0000000  0.0000000 )


      isym = 43     inv. 120 deg rotation - cart. axis [1,1,-1]  

 cryst.   s(43) = (     0         -1          0      )
                  (     1          1          1      )
                  (     0          0         -1      )

 cart.    s(43) = (  0.0000000 -1.0000000  0.0000000 )
                  (  0.0000000  0.0000000  1.0000000 )
                  (  1.0000000  0.0000000  0.0000000 )


      isym = 44     inv. 120 deg rotation - cart. axis [1,-1,1]  

 cryst.   s(44) = (     1          1          1      )
                  (     0         -1          0      )
                  (    -1          0          0      )

 cart.    s(44) = (  0.0000000  1.0000000  0.0000000 )
                  (  0.0000000  0.0000000  1.0000000 )
                  ( -1.0000000  0.0000000  0.0000000 )


      isym = 45     inv. 120 deg rotation - cart. axis [1,1,1]   

 cryst.   s(45) = (     0         -1          0      )
                  (     0          0         -1      )
                  (    -1          0          0      )

 cart.    s(45) = (  0.0000000  0.0000000 -1.0000000 )
                  ( -1.0000000  0.0000000  0.0000000 )
                  (  0.0000000 -1.0000000  0.0000000 )


      isym = 46     inv. 120 deg rotation - cart. axis [-1,1,-1] 

 cryst.   s(46) = (     0          0         -1      )
                  (     0         -1          0      )
                  (     1          1          1      )

 cart.    s(46) = (  0.0000000  0.0000000 -1.0000000 )
                  (  1.0000000  0.0000000  0.0000000 )
                  (  0.0000000  1.0000000  0.0000000 )


      isym = 47     inv. 120 deg rotation - cart. axis [1,-1,-1] 

 cryst.   s(47) = (    -1          0          0      )
                  (     1          1          1      )
                  (     0         -1          0      )

 cart.    s(47) = (  0.0000000  0.0000000  1.0000000 )
                  (  1.0000000  0.0000000  0.0000000 )
                  (  0.0000000 -1.0000000  0.0000000 )


      isym = 48     inv. 120 deg rotation - cart. axis [-1,-1,1] 

 cryst.   s(48) = (     1          1          1      )
                  (    -1          0          0      )
                  (     0          0         -1      )

 cart.    s(48) = (  0.0000000  0.0000000  1.0000000 )
                  ( -1.0000000  0.0000000  0.0000000 )
                  (  0.0000000  1.0000000  0.0000000 )


   Cartesian axes

     site n.     atom                  positions (alat units)
         1           Mo  tau(   1) = (   0.0000000   0.0000000   0.0000000  )

   Crystallographic axes

     site n.     atom                  positions (cryst. coord.)
         1           Mo  tau(   1) = (  0.0000000  0.0000000  0.0000000  )

     number of k points=    50  gaussian smearing, width (Ry)=  0.0010
                       cart. coord. in units 2pi/alat
        k(    1) = (   0.0000000   0.0000000   0.0000000), wk =   0.0400000
        k(    2) = (   0.0000000   0.0618590   0.0000000), wk =   0.0400000
        k(    3) = (   0.0000000   0.1237179   0.0000000), wk =   0.0400000
        k(    4) = (   0.0000000   0.1855769   0.0000000), wk =   0.0400000
        k(    5) = (   0.0000000   0.2474358   0.0000000), wk =   0.0400000
        k(    6) = (   0.0000000   0.3092948   0.0000000), wk =   0.0400000
        k(    7) = (   0.0000000   0.3711537   0.0000000), wk =   0.0400000
        k(    8) = (   0.0000000   0.4330127   0.0000000), wk =   0.0400000
        k(    9) = (   0.0000000   0.4948717   0.0000000), wk =   0.0400000
        k(   10) = (   0.0000000   0.5567306   0.0000000), wk =   0.0400000
        k(   11) = (   0.0000000   0.6185896   0.0000000), wk =   0.0400000
        k(   12) = (   0.0000000   0.6804485   0.0000000), wk =   0.0400000
        k(   13) = (   0.0000000   0.7423075   0.0000000), wk =   0.0400000
        k(   14) = (   0.0000000   0.8041664   0.0000000), wk =   0.0400000
        k(   15) = (   0.0000000   0.8660254   0.0000000), wk =   0.0400000
        k(   16) = (   0.0433013   0.8227241   0.0000000), wk =   0.0400000
        k(   17) = (   0.0866025   0.7794229   0.0000000), wk =   0.0400000
        k(   18) = (   0.1299038   0.7361216   0.0000000), wk =   0.0400000
        k(   19) = (   0.1732051   0.6928203   0.0000000), wk =   0.0400000
        k(   20) = (   0.2165064   0.6495191   0.0000000), wk =   0.0400000
        k(   21) = (   0.2598076   0.6062178   0.0000000), wk =   0.0400000
        k(   22) = (   0.3031089   0.5629165   0.0000000), wk =   0.0400000
        k(   23) = (   0.3464102   0.5196152   0.0000000), wk =   0.0400000
        k(   24) = (   0.3897114   0.4763140   0.0000000), wk =   0.0400000
        k(   25) = (   0.4330127   0.4330127   0.0000000), wk =   0.0400000
        k(   26) = (   0.3936479   0.3936479   0.0000000), wk =   0.0400000
        k(   27) = (   0.3542831   0.3542831   0.0000000), wk =   0.0400000
        k(   28) = (   0.3149183   0.3149183   0.0000000), wk =   0.0400000
        k(   29) = (   0.2755535   0.2755535   0.0000000), wk =   0.0400000
        k(   30) = (   0.2361887   0.2361887   0.0000000), wk =   0.0400000
        k(   31) = (   0.1968240   0.1968240   0.0000000), wk =   0.0400000
        k(   32) = (   0.1574592   0.1574592   0.0000000), wk =   0.0400000
        k(   33) = (   0.1180944   0.1180944   0.0000000), wk =   0.0400000
        k(   34) = (   0.0787296   0.0787296   0.0000000), wk =   0.0400000
        k(   35) = (   0.0393648   0.0393648   0.0000000), wk =   0.0400000
        k(   36) = (   0.0000000   0.0000000   0.0000000), wk =   0.0400000
        k(   37) = (   0.0309295   0.0309295   0.0309295), wk =   0.0400000
        k(   38) = (   0.0618590   0.0618590   0.0618590), wk =   0.0400000
        k(   39) = (   0.0927884   0.0927884   0.0927884), wk =   0.0400000
        k(   40) = (   0.1237179   0.1237179   0.1237179), wk =   0.0400000
        k(   41) = (   0.1546474   0.1546474   0.1546474), wk =   0.0400000
        k(   42) = (   0.1855769   0.1855769   0.1855769), wk =   0.0400000
        k(   43) = (   0.2165064   0.2165064   0.2165064), wk =   0.0400000
        k(   44) = (   0.2474358   0.2474358   0.2474358), wk =   0.0400000
        k(   45) = (   0.2783653   0.2783653   0.2783653), wk =   0.0400000
        k(   46) = (   0.3092948   0.3092948   0.3092948), wk =   0.0400000
        k(   47) = (   0.3402243   0.3402243   0.3402243), wk =   0.0400000
        k(   48) = (   0.3711537   0.3711537   0.3711537), wk =   0.0400000
        k(   49) = (   0.4020832   0.4020832   0.4020832), wk =   0.0400000
        k(   50) = (   0.4330127   0.4330127   0.4330127), wk =   0.0400000

                       cryst. coord.
        k(    1) = (   0.0000000   0.0000000   0.0000000), wk =   0.0400000
        k(    2) = (   0.0357143  -0.0357143   0.0357143), wk =   0.0400000
        k(    3) = (   0.0714286  -0.0714286   0.0714286), wk =   0.0400000
        k(    4) = (   0.1071429  -0.1071429   0.1071429), wk =   0.0400000
        k(    5) = (   0.1428571  -0.1428571   0.1428571), wk =   0.0400000
        k(    6) = (   0.1785714  -0.1785714   0.1785714), wk =   0.0400000
        k(    7) = (   0.2142857  -0.2142857   0.2142857), wk =   0.0400000
        k(    8) = (   0.2500000  -0.2500000   0.2500000), wk =   0.0400000
        k(    9) = (   0.2857143  -0.2857143   0.2857143), wk =   0.0400000
        k(   10) = (   0.3214286  -0.3214286   0.3214286), wk =   0.0400000
        k(   11) = (   0.3571429  -0.3571429   0.3571429), wk =   0.0400000
        k(   12) = (   0.3928571  -0.3928571   0.3928571), wk =   0.0400000
        k(   13) = (   0.4285714  -0.4285714   0.4285714), wk =   0.0400000
        k(   14) = (   0.4642857  -0.4642857   0.4642857), wk =   0.0400000
        k(   15) = (   0.5000000  -0.5000000   0.5000000), wk =   0.0400000
        k(   16) = (   0.4500000  -0.4500000   0.5000000), wk =   0.0400000
        k(   17) = (   0.4000000  -0.4000000   0.5000000), wk =   0.0400000
        k(   18) = (   0.3500000  -0.3500000   0.5000000), wk =   0.0400000
        k(   19) = (   0.3000000  -0.3000000   0.5000000), wk =   0.0400000
        k(   20) = (   0.2500000  -0.2500000   0.5000000), wk =   0.0400000
        k(   21) = (   0.2000000  -0.2000000   0.5000000), wk =   0.0400000
        k(   22) = (   0.1500000  -0.1500000   0.5000000), wk =   0.0400000
        k(   23) = (   0.1000000  -0.1000000   0.5000000), wk =   0.0400000
        k(   24) = (   0.0500000  -0.0500000   0.5000000), wk =   0.0400000
        k(   25) = (   0.0000000   0.0000000   0.5000000), wk =   0.0400000
        k(   26) = (   0.0000000   0.0000000   0.4545455), wk =   0.0400000
        k(   27) = (   0.0000000   0.0000000   0.4090909), wk =   0.0400000
        k(   28) = (   0.0000000   0.0000000   0.3636364), wk =   0.0400000
        k(   29) = (   0.0000000   0.0000000   0.3181818), wk =   0.0400000
        k(   30) = (   0.0000000   0.0000000   0.2727273), wk =   0.0400000
        k(   31) = (   0.0000000   0.0000000   0.2272727), wk =   0.0400000
        k(   32) = (   0.0000000   0.0000000   0.1818182), wk =   0.0400000
        k(   33) = (   0.0000000   0.0000000   0.1363636), wk =   0.0400000
        k(   34) = (   0.0000000   0.0000000   0.0909091), wk =   0.0400000
        k(   35) = (   0.0000000   0.0000000   0.0454545), wk =   0.0400000
        k(   36) = (   0.0000000   0.0000000   0.0000000), wk =   0.0400000
        k(   37) = (   0.0178571   0.0178571   0.0178571), wk =   0.0400000
        k(   38) = (   0.0357143   0.0357143   0.0357143), wk =   0.0400000
        k(   39) = (   0.0535714   0.0535714   0.0535714), wk =   0.0400000
        k(   40) = (   0.0714286   0.0714286   0.0714286), wk =   0.0400000
        k(   41) = (   0.0892857   0.0892857   0.0892857), wk =   0.0400000
        k(   42) = (   0.1071429   0.1071429   0.1071429), wk =   0.0400000
        k(   43) = (   0.1250000   0.1250000   0.1250000), wk =   0.0400000
        k(   44) = (   0.1428571   0.1428571   0.1428571), wk =   0.0400000
        k(   45) = (   0.1607143   0.1607143   0.1607143), wk =   0.0400000
        k(   46) = (   0.1785714   0.1785714   0.1785714), wk =   0.0400000
        k(   47) = (   0.1964286   0.1964286   0.1964286), wk =   0.0400000
        k(   48) = (   0.2142857   0.2142857   0.2142857), wk =   0.0400000
        k(   49) = (   0.2321429   0.2321429   0.2321429), wk =   0.0400000
        k(   50) = (   0.2500000   0.2500000   0.2500000), wk =   0.0400000

     Dense  grid:     5017 G-vectors     FFT dimensions: (  24,  24,  24)

     Smooth grid:     3559 G-vectors     FFT dimensions: (  24,  24,  24)

     Estimated max dynamical RAM per process >       6.17Mb

     Check: negative/imaginary core charge=   -0.000002    0.000000

     The potential is recalculated from file :
     ./pwscf.save/charge-density.dat


     negative rho (up, down):  2.250E-05 0.000E+00
     Starting wfc are   13 randomized atomic wfcs

     Band Structure Calculation
     Davidson diagonalization with overlap

     Computing kpt #:     1
     total cpu time spent up to now is        0.7 secs

     Computing kpt #:     2
     total cpu time spent up to now is        0.9 secs

     Computing kpt #:     3
     total cpu time spent up to now is        1.0 secs

     Computing kpt #:     4
     total cpu time spent up to now is        1.2 secs

     Computing kpt #:     5
     total cpu time spent up to now is        1.3 secs

     Computing kpt #:     6
     total cpu time spent up to now is        1.5 secs

     Computing kpt #:     7
     total cpu time spent up to now is        1.7 secs

     Computing kpt #:     8
     total cpu time spent up to now is        1.8 secs

     Computing kpt #:     9
     total cpu time spent up to now is        2.0 secs

     Computing kpt #:    10
     total cpu time spent up to now is        2.2 secs

     Computing kpt #:    11
     total cpu time spent up to now is        2.3 secs

     Computing kpt #:    12
     total cpu time spent up to now is        2.5 secs

     Computing kpt #:    13
     total cpu time spent up to now is        2.6 secs

     Computing kpt #:    14
     total cpu time spent up to now is        2.8 secs

     Computing kpt #:    15
     total cpu time spent up to now is        2.9 secs

     Computing kpt #:    16
     total cpu time spent up to now is        3.1 secs

     Computing kpt #:    17
     total cpu time spent up to now is        3.3 secs

     Computing kpt #:    18
     total cpu time spent up to now is        3.4 secs

     Computing kpt #:    19
     total cpu time spent up to now is        3.6 secs

     Computing kpt #:    20
     total cpu time spent up to now is        3.7 secs

     Computing kpt #:    21
     total cpu time spent up to now is        3.8 secs

     Computing kpt #:    22
     total cpu time spent up to now is        4.0 secs

     Computing kpt #:    23
     total cpu time spent up to now is        4.1 secs

     Computing kpt #:    24
     total cpu time spent up to now is        4.3 secs

     Computing kpt #:    25
     total cpu time spent up to now is        4.5 secs

     Computing kpt #:    26
     total cpu time spent up to now is        4.6 secs

     Computing kpt #:    27
     total cpu time spent up to now is        4.8 secs

     Computing kpt #:    28
     total cpu time spent up to now is        4.9 secs

     Computing kpt #:    29
     total cpu time spent up to now is        5.1 secs

     Computing kpt #:    30
     total cpu time spent up to now is        5.3 secs

     Computing kpt #:    31
     total cpu time spent up to now is        5.4 secs

     Computing kpt #:    32
     total cpu time spent up to now is        5.6 secs

     Computing kpt #:    33
     total cpu time spent up to now is        5.8 secs

     Computing kpt #:    34
     total cpu time spent up to now is        6.0 secs

     Computing kpt #:    35
     total cpu time spent up to now is        6.2 secs

     Computing kpt #:    36
     total cpu time spent up to now is        6.3 secs

     Computing kpt #:    37
     total cpu time spent up to now is        6.5 secs

     Computing kpt #:    38
     total cpu time spent up to now is        6.7 secs

     Computing kpt #:    39
     total cpu time spent up to now is        6.9 secs

     Computing kpt #:    40
     total cpu time spent up to now is        7.1 secs

     Computing kpt #:    41
     total cpu time spent up to now is        7.3 secs

     Computing kpt #:    42
     total cpu time spent up to now is        7.5 secs

     Computing kpt #:    43
     total cpu time spent up to now is        7.6 secs

     Computing kpt #:    44
     total cpu time spent up to now is        7.8 secs

     Computing kpt #:    45
     total cpu time spent up to now is        7.9 secs

     Computing kpt #:    46
     total cpu time spent up to now is        8.1 secs

     Computing kpt #:    47
     total cpu time spent up to now is        8.2 secs

     Computing kpt #:    48
     total cpu time spent up to now is        8.4 secs

     Computing kpt #:    49
     total cpu time spent up to now is        8.5 secs

     Computing kpt #:    50
     total cpu time spent up to now is        8.7 secs

     ethr =  7.14E-10,  avg # of iterations = 16.1

     total cpu time spent up to now is        8.7 secs

     End of band structure calculation

          k = 0.0000 0.0000 0.0000 (   429 PWs)   bands (ev):

   -39.8673 -13.1169 -13.1169 -13.1169  14.2132  20.0802  20.0802  20.0802
    23.1114  23.1114  36.2195

          k = 0.0000 0.0619 0.0000 (   442 PWs)   bands (ev):

   -39.8608 -13.1433 -13.1286 -13.1286  14.3272  20.0721  20.0721  20.1299
    22.9582  23.1643  36.3495

          k = 0.0000 0.1237 0.0000 (   442 PWs)   bands (ev):

   -39.8416 -13.2187 -13.1632 -13.1632  14.6595  20.0573  20.0573  20.2781
    22.5288  23.3182  36.7089

          k = 0.0000 0.1856 0.0000 (   442 PWs)   bands (ev):

   -39.8111 -13.3327 -13.2192 -13.2192  15.1801  20.0596  20.0596  20.5222
    21.8955  23.5568  37.2257

          k = 0.0000 0.2474 0.0000 (   446 PWs)   bands (ev):

   -39.7713 -13.4706 -13.2942 -13.2942  15.8378  20.1100  20.1100  20.8572
    21.1404  23.8533  37.8245

          k = 0.0000 0.3093 0.0000 (   434 PWs)   bands (ev):

   -39.7246 -13.6161 -13.3846 -13.3846  16.5554  20.2388  20.2388  20.3341
    21.2758  24.1748  38.1587

          k = 0.0000 0.3712 0.0000 (   446 PWs)   bands (ev):

   -39.6741 -13.7543 -13.4863 -13.4863  17.2227  19.5297  20.4708  20.4708
    21.7677  24.5065  37.0855

          k = 0.0000 0.4330 0.0000 (   442 PWs)   bands (ev):

   -39.6225 -13.8734 -13.5942 -13.5942  17.6985  18.7651  20.8233  20.8233
    22.3187  24.8925  36.6449

          k = 0.0000 0.4949 0.0000 (   434 PWs)   bands (ev):

   -39.5726 -13.9662 -13.7029 -13.7029  17.8568  18.0668  21.3058  21.3058
    22.9097  25.4394  36.8253

          k = 0.0000 0.5567 0.0000 (   434 PWs)   bands (ev):

   -39.5269 -14.0305 -13.8069 -13.8069  17.4534  17.6792  21.9191  21.9191
    23.5155  26.2248  36.9645

          k = 0.0000 0.6186 0.0000 (   450 PWs)   bands (ev):

   -39.4874 -14.0686 -13.9008 -13.9008  16.9377  17.2752  22.6541  22.6541
    24.1037  27.2216  35.2339

          k = 0.0000 0.6804 0.0000 (   454 PWs)   bands (ev):

   -39.4554 -14.0860 -13.9794 -13.9794  16.5289  16.7989  23.4853  23.4853
    24.6344  28.3263  33.5818

          k = 0.0000 0.7423 0.0000 (   454 PWs)   bands (ev):

   -39.4320 -14.0904 -14.0388 -14.0388  16.2330  16.3771  24.3525  24.3525
    25.0622  29.3913  32.1093

          k = 0.0000 0.8042 0.0000 (   466 PWs)   bands (ev):

   -39.4178 -14.0893 -14.0758 -14.0758  16.0539  16.0934  25.1080  25.1080
    25.3422  30.2100  30.9841

          k = 0.0000 0.8660 0.0000 (   466 PWs)   bands (ev):

   -39.4130 -14.0883 -14.0883 -14.0883  15.9940  15.9940  25.4398  25.4398
    25.4398  30.5281  30.5281

          k = 0.0433 0.8227 0.0000 (   466 PWs)   bands (ev):

   -39.4177 -14.0995 -14.0761 -14.0661  16.0620  16.0825  25.0105  25.1045
    25.4573  30.4928  30.6981

          k = 0.0866 0.7794 0.0000 (   464 PWs)   bands (ev):

   -39.4312 -14.1317 -14.0404 -14.0012  16.2566  16.3457  24.0268  24.2817
    25.5084  30.3701  31.0774

          k = 0.1299 0.7361 0.0000 (   458 PWs)   bands (ev):

   -39.4521 -14.1815 -13.9843 -13.8992  16.5451  16.7778  22.8704  23.2856
    25.5889  30.1151  31.4893

          k = 0.1732 0.6928 0.0000 (   444 PWs)   bands (ev):

   -39.4783 -14.2436 -13.9129 -13.7688  16.8563  17.3687  21.7233  22.3704
    25.6921  29.6722  31.8658

          k = 0.2165 0.6495 0.0000 (   444 PWs)   bands (ev):

   -39.5074 -14.3118 -13.8328 -13.6221  17.0621  18.1059  20.6702  21.7577
    25.8088  29.0055  32.1973

          k = 0.2598 0.6062 0.0000 (   442 PWs)   bands (ev):

   -39.5362 -14.3792 -13.7516 -13.4728  17.0261  18.9739  19.7591  21.6202
    25.9282  28.1227  32.4849

          k = 0.3031 0.5629 0.0000 (   446 PWs)   bands (ev):

   -39.5622 -14.4393 -13.6773 -13.3359  16.7653  19.0215  19.9554  21.9308
    26.0381  27.0698  32.7256

          k = 0.3464 0.5196 0.0000 (   454 PWs)   bands (ev):

   -39.5827 -14.4867 -13.6177 -13.2255  16.4434  18.4794  21.0296  22.4624
    25.9090  26.1270  32.9126

          k = 0.3897 0.4763 0.0000 (   446 PWs)   bands (ev):

   -39.5958 -14.5168 -13.5791 -13.1538  16.2025  18.1481  22.1645  22.9452
    24.7077  26.1850  33.0427

          k = 0.4330 0.4330 0.0000 (   444 PWs)   bands (ev):

   -39.6004 -14.5272 -13.5658 -13.1289  16.1152  18.0367  23.0770  23.1416
    23.7705  26.2051  33.1135

          k = 0.3936 0.3936 0.0000 (   444 PWs)   bands (ev):

   -39.6059 -14.5004 -13.5570 -13.1286  16.1504  18.0703  22.7020  23.2477
    23.7412  25.9971  33.3814

          k = 0.3543 0.3543 0.0000 (   448 PWs)   bands (ev):

   -39.6220 -14.4219 -13.5314 -13.1279  16.2453  18.1697  22.0417  23.1952
    23.6608  25.4358  33.8910

          k = 0.3149 0.3149 0.0000 (   450 PWs)   bands (ev):

   -39.6474 -14.2970 -13.4907 -13.1267  16.3631  18.3307  21.2542  23.0393
    23.5490  24.6559  34.4656

          k = 0.2756 0.2756 0.0000 (   446 PWs)   bands (ev):

   -39.6797 -14.1344 -13.4380 -13.1252  16.4275  18.5458  20.5183  22.8416
    23.4285  23.7856  35.1719

          k = 0.2362 0.2362 0.0000 (   450 PWs)   bands (ev):

   -39.7164 -13.9459 -13.3774 -13.1236  16.3238  18.8037  20.0129  22.6547
    22.9171  23.3185  35.8990

          k = 0.1968 0.1968 0.0000 (   449 PWs)   bands (ev):

   -39.7544 -13.7458 -13.3136 -13.1219  15.9854  19.0887  19.8260  22.1121
    22.5294  23.2309  36.4790

          k = 0.1575 0.1575 0.0000 (   441 PWs)   bands (ev):

   -39.7906 -13.5499 -13.2516 -13.1203  15.4933  19.3804  19.8646  21.4110
    22.5135  23.1704  36.7406

          k = 0.1181 0.1181 0.0000 (   435 PWs)   bands (ev):

   -39.8221 -13.3749 -13.1968 -13.1189  14.9887  19.6531  19.9666  20.8415
    22.6291  23.1349  36.6806

          k = 0.0787 0.0787 0.0000 (   441 PWs)   bands (ev):

   -39.8466 -13.2365 -13.1538 -13.1178  14.5736  19.8783  20.0399  20.4225
    22.8357  23.1182  36.4741

          k = 0.0394 0.0394 0.0000 (   441 PWs)   bands (ev):

   -39.8620 -13.1476 -13.1264 -13.1171  14.3055  20.0277  20.0722  20.1663
    23.0315  23.1124  36.2899

          k = 0.0000 0.0000 0.0000 (   429 PWs)   bands (ev):

   -39.8673 -13.1169 -13.1169 -13.1169  14.2132  20.0802  20.0802  20.0802
    23.1114  23.1114  36.2195

          k = 0.0309 0.0309 0.0309 (   438 PWs)   bands (ev):

   -39.8624 -13.1481 -13.1200 -13.1200  14.2987  20.0448  20.0448  20.1745
    23.0751  23.0751  36.2759

          k = 0.0619 0.0619 0.0619 (   444 PWs)   bands (ev):

   -39.8481 -13.2376 -13.1295 -13.1295  14.5476  19.9353  19.9353  20.4587
    22.9896  22.9896  36.4449

          k = 0.0928 0.0928 0.0928 (   441 PWs)   bands (ev):

   -39.8255 -13.3744 -13.1458 -13.1458  14.9386  19.7485  19.7485  20.9358
    22.9073  22.9073  36.7266

          k = 0.1237 0.1237 0.1237 (   444 PWs)   bands (ev):

   -39.7962 -13.5425 -13.1698 -13.1698  15.4411  19.4945  19.4945  21.6070
    22.8740  22.8740  37.1208

          k = 0.1546 0.1546 0.1546 (   444 PWs)   bands (ev):

   -39.7626 -13.7227 -13.2022 -13.2022  16.0209  19.2024  19.2024  22.4666
    22.9076  22.9076  37.6270

          k = 0.1856 0.1856 0.1856 (   450 PWs)   bands (ev):

   -39.7270 -13.8964 -13.2437 -13.2437  16.6448  18.9109  18.9109  23.0014
    23.0014  23.4977  37.5036

          k = 0.2165 0.2165 0.2165 (   447 PWs)   bands (ev):

   -39.6919 -14.0461 -13.2947 -13.2947  17.2822  18.6552  18.6552  23.1375
    23.1375  24.6690  36.9538

          k = 0.2474 0.2474 0.2474 (   453 PWs)   bands (ev):

   -39.6596 -14.1582 -13.3552 -13.3552  17.9017  18.4611  18.4611  23.2952
    23.2952  25.9344  36.3271

          k = 0.2784 0.2784 0.2784 (   462 PWs)   bands (ev):

   -39.6320 -14.2229 -13.4243 -13.4243  18.3434  18.3434  18.4660  23.4557
    23.4557  27.2360  35.6705

          k = 0.3093 0.3093 0.3093 (   462 PWs)   bands (ev):

   -39.6102 -14.2353 -13.5007 -13.5007  18.3076  18.3076  18.9260  23.6035
    23.6035  28.5087  34.0780

          k = 0.3402 0.3402 0.3402 (   453 PWs)   bands (ev):

   -39.5947 -14.1952 -13.5823 -13.5823  18.3508  18.3508  19.2225  23.7269
    23.7269  29.6861  32.8400

          k = 0.3712 0.3712 0.3712 (   459 PWs)   bands (ev):

   -39.5852 -14.1077 -13.6667 -13.6667  18.4628  18.4628  19.3026  23.8188
    23.8188  30.6764  32.0740

          k = 0.4021 0.4021 0.4021 (   456 PWs)   bands (ev):

   -39.5807 -13.9822 -13.7509 -13.7509  18.6267  18.6267  19.1521  23.8756
    23.8756  31.0941  32.1816

          k = 0.4330 0.4330 0.4330 (   456 PWs)   bands (ev):

   -39.5796 -13.8320 -13.8320 -13.8320  18.8191  18.8191  18.8191  23.8950
    23.8950  31.0711  33.0182

     Writing output data file pwscf.save

     init_run     :      0.52s CPU      0.42s WALL (       1 calls)
     electrons    :     16.25s CPU      8.15s WALL (       1 calls)

     Called by init_run:
     wfcinit      :      0.00s CPU      0.00s WALL (       1 calls)
     wfcinit:atom :      0.03s CPU      0.02s WALL (      50 calls)
     wfcinit:wfcr :      1.53s CPU      0.74s WALL (      50 calls)
     potinit      :      0.00s CPU      0.01s WALL (       1 calls)

     Called by electrons:
     c_bands      :     16.25s CPU      8.15s WALL (       1 calls)
     v_of_rho     :      0.00s CPU      0.01s WALL (       1 calls)
     v_h          :      0.00s CPU      0.00s WALL (       1 calls)
     v_xc         :      0.00s CPU      0.01s WALL (       1 calls)
     newd         :      0.02s CPU      0.03s WALL (       1 calls)

     Called by c_bands:
     init_us_2    :      0.03s CPU      0.02s WALL (      50 calls)
     cegterg      :     14.44s CPU      7.23s WALL (      60 calls)

     Called by sum_band:

     Called by *egterg:
     h_psi        :     12.97s CPU      6.04s WALL (     913 calls)
     s_psi        :      0.20s CPU      0.07s WALL (     913 calls)
     g_psi        :      0.03s CPU      0.03s WALL (     803 calls)
     cdiaghg      :      2.06s CPU      1.23s WALL (     853 calls)
     cegterg:over :      0.31s CPU      0.20s WALL (     803 calls)
     cegterg:upda :      0.27s CPU      0.17s WALL (     803 calls)
     cegterg:last :      0.05s CPU      0.10s WALL (     160 calls)

     Called by h_psi:
     h_psi:pot    :     12.84s CPU      6.01s WALL (     913 calls)
     h_psi:calbec :      0.27s CPU      0.10s WALL (     913 calls)
     vloc_psi     :     12.19s CPU      5.80s WALL (     913 calls)
     add_vuspsi   :      0.23s CPU      0.09s WALL (     913 calls)

     General routines
     calbec       :      0.25s CPU      0.08s WALL (     913 calls)
     fft          :      0.00s CPU      0.01s WALL (      13 calls)
     ffts         :      0.00s CPU      0.00s WALL (       1 calls)
     fftw         :     11.38s CPU      5.35s WALL (   11336 calls)
     interpolate  :      0.00s CPU      0.00s WALL (       1 calls)
     davcio       :      0.00s CPU      0.00s WALL (      50 calls)

     Parallel routines
     fft_scatter  :      0.44s CPU      0.25s WALL (   11350 calls)

     PWSCF        :    17.12s CPU         8.98s WALL


   This run was terminated on:  18:25:40  25Feb2021            

=------------------------------------------------------------------------------=
   JOB DONE.
=------------------------------------------------------------------------------=
