
     Program PWSCF v.6.0 (svn rev. 13079) starts on 25Feb2021 at 11: 9:54 

     This program is part of the open-source Quantum ESPRESSO suite
     for quantum simulation of materials; please cite
         "P. Giannozzi et al., J. Phys.:Condens. Matter 21 395502 (2009);
          URL http://www.quantum-espresso.org", 
     in publications or presentations arising from this work. More details at
     http://www.quantum-espresso.org/quote

     Parallel version (MPI), running on     1 processors
     Reading input from espresso.pwi
Warning: card &IONS ignored
Warning: card / ignored
Warning: card &CELL ignored
Warning: card / ignored

     Current dimensions of program PWSCF are:
     Max number of different atomic species (ntypx) = 10
     Max number of k-points (npk) =  40000
     Max angular momentum in pseudopotentials (lmaxx) =  3
     Message from routine input:
     WARNING: "startingwfc" set to atomic+random may spoil restart

     Atomic positions and unit cell read from directory:
     ./pwscf.save/


     IMPORTANT: XC functional enforced from input :
     Exchange-correlation      = PBE ( 1  4  3  4 0 0)
     Any further DFT definition will be discarded
     Please, verify this is what you really want


     Subspace diagonalization in iterative solution of the eigenvalue problem:
     a serial algorithm will be used


     G-vector sticks info
     --------------------
     sticks:   dense  smooth     PW     G-vecs:    dense   smooth      PW
     Sum         745     583    169                26093    18653    3013



     bravais-lattice index     =            0
     lattice parameter (alat)  =       7.2962  a.u.
     unit-cell volume          =     545.8181 (a.u.)^3
     number of atoms/cell      =            2
     number of atomic types    =            1
     number of electrons       =        10.00
     number of Kohn-Sham states=            9
     kinetic-energy cutoff     =      40.0000  Ry
     charge density cutoff     =     200.0000  Ry
     Exchange-correlation      = PBE ( 1  4  3  4 0 0)

     celldm(1)=   7.296233  celldm(2)=   0.000000  celldm(3)=   0.000000
     celldm(4)=   0.000000  celldm(5)=   0.000000  celldm(6)=   0.000000

     crystal axes: (cart. coord. in units of alat)
               a(1) = (   1.000000   0.000000   0.000000 )  
               a(2) = (  -0.500000   0.866025   0.000000 )  
               a(3) = (   0.000000   0.000000   1.622637 )  

     reciprocal axes: (cart. coord. in units 2 pi/alat)
               b(1) = (  1.000000  0.577350 -0.000000 )  
               b(2) = (  0.000000  1.154701  0.000000 )  
               b(3) = (  0.000000 -0.000000  0.616281 )  


     PseudoPot. # 1 for N  read from file:
     /home/inukai/tango/tests/1element/qe_fit_v2_N/../pseudo/n_pbe_v1.2.uspp.F.UPF
     MD5 check sum: 95339753478d7afb44899504a8723017
     Pseudo is Ultrasoft + core correction, Zval =  5.0
     Generated by new atomic code, or converted to UPF format
     Using radial grid of  729 points,  4 beta functions with: 
                l(1) =   0
                l(2) =   0
                l(3) =   1
                l(4) =   1
     Q(r) pseudized with  8 coefficients,  rinner =    0.900   0.900   0.900


     atomic species   valence    mass     pseudopotential
        N              5.00    14.00700     N ( 1.00)

     24 Sym. Ops., with inversion, found (12 have fractional translation)


                                    s                        frac. trans.

      isym =  1     identity                                     

 cryst.   s( 1) = (     1          0          0      )
                  (     0          1          0      )
                  (     0          0          1      )

 cart.    s( 1) = (  1.0000000  0.0000000  0.0000000 )
                  (  0.0000000  1.0000000  0.0000000 )
                  (  0.0000000  0.0000000  1.0000000 )


      isym =  2     180 deg rotation - cart. axis [0,0,1]        

 cryst.   s( 2) = (    -1          0          0      )    f =( -0.3333333 )
                  (     0         -1          0      )       (  0.3333333 )
                  (     0          0          1      )       ( -0.5000000 )

 cart.    s( 2) = ( -1.0000000 -0.0000000  0.0000000 )    f =( -0.5000000 )
                  (  0.0000000 -1.0000000  0.0000000 )       (  0.2886751 )
                  (  0.0000000  0.0000000  1.0000000 )       ( -0.8113183 )


      isym =  3     180 deg rotation - cart. axis [0,1,0]        

 cryst.   s( 3) = (    -1          0          0      )
                  (     1          1          0      )
                  (     0          0         -1      )

 cart.    s( 3) = ( -1.0000000  0.0000000  0.0000000 )
                  (  0.0000000  1.0000000  0.0000000 )
                  (  0.0000000  0.0000000 -1.0000000 )


      isym =  4     180 deg rotation - cart. axis [1,0,0]        

 cryst.   s( 4) = (     1          0          0      )    f =( -0.3333333 )
                  (    -1         -1          0      )       (  0.3333333 )
                  (     0          0         -1      )       (  0.5000000 )

 cart.    s( 4) = (  1.0000000 -0.0000000  0.0000000 )    f =( -0.5000000 )
                  (  0.0000000 -1.0000000  0.0000000 )       (  0.2886751 )
                  (  0.0000000  0.0000000 -1.0000000 )       (  0.8113183 )


      isym =  5      60 deg rotation - cryst. axis [0,0,1]       

 cryst.   s( 5) = (     1          1          0      )    f =( -0.3333333 )
                  (    -1          0          0      )       (  0.3333333 )
                  (     0          0          1      )       ( -0.5000000 )

 cart.    s( 5) = (  0.5000000 -0.8660254  0.0000000 )    f =( -0.5000000 )
                  (  0.8660254  0.5000000  0.0000000 )       (  0.2886751 )
                  (  0.0000000  0.0000000  1.0000000 )       ( -0.8113183 )


      isym =  6      60 deg rotation - cryst. axis [0,0,-1]      

 cryst.   s( 6) = (     0         -1          0      )    f =( -0.3333333 )
                  (     1          1          0      )       (  0.3333333 )
                  (     0          0          1      )       ( -0.5000000 )

 cart.    s( 6) = (  0.5000000  0.8660254  0.0000000 )    f =( -0.5000000 )
                  ( -0.8660254  0.5000000  0.0000000 )       (  0.2886751 )
                  (  0.0000000  0.0000000  1.0000000 )       ( -0.8113183 )


      isym =  7     120 deg rotation - cryst. axis [0,0,1]       

 cryst.   s( 7) = (     0          1          0      )
                  (    -1         -1          0      )
                  (     0          0          1      )

 cart.    s( 7) = ( -0.5000000 -0.8660254  0.0000000 )
                  (  0.8660254 -0.5000000  0.0000000 )
                  (  0.0000000  0.0000000  1.0000000 )


      isym =  8     120 deg rotation - cryst. axis [0,0,-1]      

 cryst.   s( 8) = (    -1         -1          0      )
                  (     1          0          0      )
                  (     0          0          1      )

 cart.    s( 8) = ( -0.5000000  0.8660254  0.0000000 )
                  ( -0.8660254 -0.5000000  0.0000000 )
                  (  0.0000000  0.0000000  1.0000000 )


      isym =  9     180 deg rotation - cryst. axis [1,-1,0]      

 cryst.   s( 9) = (     0         -1          0      )
                  (    -1          0          0      )
                  (     0          0         -1      )

 cart.    s( 9) = (  0.5000000 -0.8660254  0.0000000 )
                  ( -0.8660254 -0.5000000  0.0000000 )
                  (  0.0000000  0.0000000 -1.0000000 )


      isym = 10     180 deg rotation - cryst. axis [2,1,0]       

 cryst.   s(10) = (     1          1          0      )
                  (     0         -1          0      )
                  (     0          0         -1      )

 cart.    s(10) = (  0.5000000  0.8660254  0.0000000 )
                  (  0.8660254 -0.5000000  0.0000000 )
                  (  0.0000000  0.0000000 -1.0000000 )


      isym = 11     180 deg rotation - cryst. axis [0,1,0]       

 cryst.   s(11) = (    -1         -1          0      )    f =( -0.3333333 )
                  (     0          1          0      )       (  0.3333333 )
                  (     0          0         -1      )       (  0.5000000 )

 cart.    s(11) = ( -0.5000000 -0.8660254  0.0000000 )    f =( -0.5000000 )
                  ( -0.8660254  0.5000000  0.0000000 )       (  0.2886751 )
                  (  0.0000000  0.0000000 -1.0000000 )       (  0.8113183 )


      isym = 12     180 deg rotation - cryst. axis [1,1,0]       

 cryst.   s(12) = (     0          1          0      )    f =( -0.3333333 )
                  (     1          0          0      )       (  0.3333333 )
                  (     0          0         -1      )       (  0.5000000 )

 cart.    s(12) = ( -0.5000000  0.8660254  0.0000000 )    f =( -0.5000000 )
                  (  0.8660254  0.5000000  0.0000000 )       (  0.2886751 )
                  (  0.0000000  0.0000000 -1.0000000 )       (  0.8113183 )


      isym = 13     inversion                                    

 cryst.   s(13) = (    -1          0          0      )    f =( -0.3333333 )
                  (     0         -1          0      )       (  0.3333333 )
                  (     0          0         -1      )       (  0.5000000 )

 cart.    s(13) = ( -1.0000000 -0.0000000  0.0000000 )    f =( -0.5000000 )
                  (  0.0000000 -1.0000000  0.0000000 )       (  0.2886751 )
                  (  0.0000000  0.0000000 -1.0000000 )       (  0.8113183 )


      isym = 14     inv. 180 deg rotation - cart. axis [0,0,1]   

 cryst.   s(14) = (     1          0          0      )
                  (     0          1          0      )
                  (     0          0         -1      )

 cart.    s(14) = (  1.0000000  0.0000000  0.0000000 )
                  (  0.0000000  1.0000000  0.0000000 )
                  (  0.0000000  0.0000000 -1.0000000 )


      isym = 15     inv. 180 deg rotation - cart. axis [0,1,0]   

 cryst.   s(15) = (     1          0          0      )    f =( -0.3333333 )
                  (    -1         -1          0      )       (  0.3333333 )
                  (     0          0          1      )       ( -0.5000000 )

 cart.    s(15) = (  1.0000000 -0.0000000  0.0000000 )    f =( -0.5000000 )
                  (  0.0000000 -1.0000000  0.0000000 )       (  0.2886751 )
                  (  0.0000000  0.0000000  1.0000000 )       ( -0.8113183 )


      isym = 16     inv. 180 deg rotation - cart. axis [1,0,0]   

 cryst.   s(16) = (    -1          0          0      )
                  (     1          1          0      )
                  (     0          0          1      )

 cart.    s(16) = ( -1.0000000  0.0000000  0.0000000 )
                  (  0.0000000  1.0000000  0.0000000 )
                  (  0.0000000  0.0000000  1.0000000 )


      isym = 17     inv.  60 deg rotation - cryst. axis [0,0,1]  

 cryst.   s(17) = (    -1         -1          0      )
                  (     1          0          0      )
                  (     0          0         -1      )

 cart.    s(17) = ( -0.5000000  0.8660254  0.0000000 )
                  ( -0.8660254 -0.5000000  0.0000000 )
                  (  0.0000000  0.0000000 -1.0000000 )


      isym = 18     inv.  60 deg rotation - cryst. axis [0,0,-1] 

 cryst.   s(18) = (     0          1          0      )
                  (    -1         -1          0      )
                  (     0          0         -1      )

 cart.    s(18) = ( -0.5000000 -0.8660254  0.0000000 )
                  (  0.8660254 -0.5000000  0.0000000 )
                  (  0.0000000  0.0000000 -1.0000000 )


      isym = 19     inv. 120 deg rotation - cryst. axis [0,0,1]  

 cryst.   s(19) = (     0         -1          0      )    f =( -0.3333333 )
                  (     1          1          0      )       (  0.3333333 )
                  (     0          0         -1      )       (  0.5000000 )

 cart.    s(19) = (  0.5000000  0.8660254  0.0000000 )    f =( -0.5000000 )
                  ( -0.8660254  0.5000000  0.0000000 )       (  0.2886751 )
                  (  0.0000000  0.0000000 -1.0000000 )       (  0.8113183 )


      isym = 20     inv. 120 deg rotation - cryst. axis [0,0,-1] 

 cryst.   s(20) = (     1          1          0      )    f =( -0.3333333 )
                  (    -1          0          0      )       (  0.3333333 )
                  (     0          0         -1      )       (  0.5000000 )

 cart.    s(20) = (  0.5000000 -0.8660254  0.0000000 )    f =( -0.5000000 )
                  (  0.8660254  0.5000000  0.0000000 )       (  0.2886751 )
                  (  0.0000000  0.0000000 -1.0000000 )       (  0.8113183 )


      isym = 21     inv. 180 deg rotation - cryst. axis [1,-1,0] 

 cryst.   s(21) = (     0          1          0      )    f =( -0.3333333 )
                  (     1          0          0      )       (  0.3333333 )
                  (     0          0          1      )       ( -0.5000000 )

 cart.    s(21) = ( -0.5000000  0.8660254  0.0000000 )    f =( -0.5000000 )
                  (  0.8660254  0.5000000  0.0000000 )       (  0.2886751 )
                  (  0.0000000  0.0000000  1.0000000 )       ( -0.8113183 )


      isym = 22     inv. 180 deg rotation - cryst. axis [2,1,0]  

 cryst.   s(22) = (    -1         -1          0      )    f =( -0.3333333 )
                  (     0          1          0      )       (  0.3333333 )
                  (     0          0          1      )       ( -0.5000000 )

 cart.    s(22) = ( -0.5000000 -0.8660254  0.0000000 )    f =( -0.5000000 )
                  ( -0.8660254  0.5000000  0.0000000 )       (  0.2886751 )
                  (  0.0000000  0.0000000  1.0000000 )       ( -0.8113183 )


      isym = 23     inv. 180 deg rotation - cryst. axis [0,1,0]  

 cryst.   s(23) = (     1          1          0      )
                  (     0         -1          0      )
                  (     0          0          1      )

 cart.    s(23) = (  0.5000000  0.8660254  0.0000000 )
                  (  0.8660254 -0.5000000  0.0000000 )
                  (  0.0000000  0.0000000  1.0000000 )


      isym = 24     inv. 180 deg rotation - cryst. axis [1,1,0]  

 cryst.   s(24) = (     0         -1          0      )
                  (    -1          0          0      )
                  (     0          0          1      )

 cart.    s(24) = (  0.5000000 -0.8660254  0.0000000 )
                  ( -0.8660254 -0.5000000  0.0000000 )
                  (  0.0000000  0.0000000  1.0000000 )


   Cartesian axes

     site n.     atom                  positions (alat units)
         1           N   tau(   1) = (   0.0000000   0.0000000   0.0000000  )
         2           N   tau(   2) = (  -0.0000000   0.5773503   0.8113183  )

   Crystallographic axes

     site n.     atom                  positions (cryst. coord.)
         1           N   tau(   1) = (  0.0000000  0.0000000  0.0000000  )
         2           N   tau(   2) = (  0.3333333  0.6666667  0.5000000  )

     number of k points=    50  gaussian smearing, width (Ry)=  0.0010
                       cart. coord. in units 2pi/alat
        k(    1) = (   0.0000000   0.0000000   0.0000000), wk =   0.0400000
        k(    2) = (   0.0357143   0.0206197   0.0000000), wk =   0.0400000
        k(    3) = (   0.0714286   0.0412393   0.0000000), wk =   0.0400000
        k(    4) = (   0.1071429   0.0618590   0.0000000), wk =   0.0400000
        k(    5) = (   0.1428571   0.0824786   0.0000000), wk =   0.0400000
        k(    6) = (   0.1785714   0.1030983   0.0000000), wk =   0.0400000
        k(    7) = (   0.2142857   0.1237179   0.0000000), wk =   0.0400000
        k(    8) = (   0.2500000   0.1443376   0.0000000), wk =   0.0400000
        k(    9) = (   0.2857143   0.1649572   0.0000000), wk =   0.0400000
        k(   10) = (   0.3214286   0.1855769   0.0000000), wk =   0.0400000
        k(   11) = (   0.3571429   0.2061965   0.0000000), wk =   0.0400000
        k(   12) = (   0.3928571   0.2268162   0.0000000), wk =   0.0400000
        k(   13) = (   0.4285714   0.2474358   0.0000000), wk =   0.0400000
        k(   14) = (   0.4642857   0.2680555   0.0000000), wk =   0.0400000
        k(   15) = (   0.5000000   0.2886751   0.0000000), wk =   0.0400000
        k(   16) = (   0.4791667   0.3247595   0.0000000), wk =   0.0400000
        k(   17) = (   0.4583333   0.3608439   0.0000000), wk =   0.0400000
        k(   18) = (   0.4375000   0.3969283   0.0000000), wk =   0.0400000
        k(   19) = (   0.4166667   0.4330127   0.0000000), wk =   0.0400000
        k(   20) = (   0.3958333   0.4690971   0.0000000), wk =   0.0400000
        k(   21) = (   0.3750000   0.5051815   0.0000000), wk =   0.0400000
        k(   22) = (   0.3541667   0.5412659   0.0000000), wk =   0.0400000
        k(   23) = (   0.3333333   0.5773503   0.0000000), wk =   0.0400000
        k(   24) = (   0.3148148   0.5452753   0.0000000), wk =   0.0400000
        k(   25) = (   0.2962963   0.5132002   0.0000000), wk =   0.0400000
        k(   26) = (   0.2777778   0.4811252   0.0000000), wk =   0.0400000
        k(   27) = (   0.2592593   0.4490502   0.0000000), wk =   0.0400000
        k(   28) = (   0.2407407   0.4169752   0.0000000), wk =   0.0400000
        k(   29) = (   0.2222222   0.3849002   0.0000000), wk =   0.0400000
        k(   30) = (   0.2037037   0.3528252   0.0000000), wk =   0.0400000
        k(   31) = (   0.1851852   0.3207501   0.0000000), wk =   0.0400000
        k(   32) = (   0.1666667   0.2886751   0.0000000), wk =   0.0400000
        k(   33) = (   0.1481481   0.2566001   0.0000000), wk =   0.0400000
        k(   34) = (   0.1296296   0.2245251   0.0000000), wk =   0.0400000
        k(   35) = (   0.1111111   0.1924501   0.0000000), wk =   0.0400000
        k(   36) = (   0.0925926   0.1603751   0.0000000), wk =   0.0400000
        k(   37) = (   0.0740741   0.1283001   0.0000000), wk =   0.0400000
        k(   38) = (   0.0555556   0.0962250   0.0000000), wk =   0.0400000
        k(   39) = (   0.0370370   0.0641500   0.0000000), wk =   0.0400000
        k(   40) = (   0.0185185   0.0320750   0.0000000), wk =   0.0400000
        k(   41) = (   0.0000000   0.0000000   0.0000000), wk =   0.0400000
        k(   42) = (   0.0000000   0.0000000   0.0342378), wk =   0.0400000
        k(   43) = (   0.0000000   0.0000000   0.0684757), wk =   0.0400000
        k(   44) = (   0.0000000   0.0000000   0.1027135), wk =   0.0400000
        k(   45) = (   0.0000000   0.0000000   0.1369513), wk =   0.0400000
        k(   46) = (   0.0000000   0.0000000   0.1711891), wk =   0.0400000
        k(   47) = (   0.0000000   0.0000000   0.2054270), wk =   0.0400000
        k(   48) = (   0.0000000   0.0000000   0.2396648), wk =   0.0400000
        k(   49) = (   0.0000000   0.0000000   0.2739026), wk =   0.0400000
        k(   50) = (   0.0000000   0.0000000   0.3081405), wk =   0.0400000

                       cryst. coord.
        k(    1) = (   0.0000000   0.0000000   0.0000000), wk =   0.0400000
        k(    2) = (   0.0357143   0.0000000   0.0000000), wk =   0.0400000
        k(    3) = (   0.0714286   0.0000000   0.0000000), wk =   0.0400000
        k(    4) = (   0.1071429   0.0000000   0.0000000), wk =   0.0400000
        k(    5) = (   0.1428571   0.0000000   0.0000000), wk =   0.0400000
        k(    6) = (   0.1785714   0.0000000   0.0000000), wk =   0.0400000
        k(    7) = (   0.2142857   0.0000000   0.0000000), wk =   0.0400000
        k(    8) = (   0.2500000   0.0000000   0.0000000), wk =   0.0400000
        k(    9) = (   0.2857143   0.0000000   0.0000000), wk =   0.0400000
        k(   10) = (   0.3214286   0.0000000   0.0000000), wk =   0.0400000
        k(   11) = (   0.3571429   0.0000000   0.0000000), wk =   0.0400000
        k(   12) = (   0.3928571   0.0000000   0.0000000), wk =   0.0400000
        k(   13) = (   0.4285714   0.0000000   0.0000000), wk =   0.0400000
        k(   14) = (   0.4642857   0.0000000   0.0000000), wk =   0.0400000
        k(   15) = (   0.5000000   0.0000000   0.0000000), wk =   0.0400000
        k(   16) = (   0.4791667   0.0416667   0.0000000), wk =   0.0400000
        k(   17) = (   0.4583333   0.0833333   0.0000000), wk =   0.0400000
        k(   18) = (   0.4375000   0.1250000   0.0000000), wk =   0.0400000
        k(   19) = (   0.4166667   0.1666667   0.0000000), wk =   0.0400000
        k(   20) = (   0.3958333   0.2083333   0.0000000), wk =   0.0400000
        k(   21) = (   0.3750000   0.2500000   0.0000000), wk =   0.0400000
        k(   22) = (   0.3541667   0.2916667   0.0000000), wk =   0.0400000
        k(   23) = (   0.3333333   0.3333333   0.0000000), wk =   0.0400000
        k(   24) = (   0.3148148   0.3148148   0.0000000), wk =   0.0400000
        k(   25) = (   0.2962963   0.2962963   0.0000000), wk =   0.0400000
        k(   26) = (   0.2777778   0.2777778   0.0000000), wk =   0.0400000
        k(   27) = (   0.2592593   0.2592593   0.0000000), wk =   0.0400000
        k(   28) = (   0.2407407   0.2407407   0.0000000), wk =   0.0400000
        k(   29) = (   0.2222222   0.2222222   0.0000000), wk =   0.0400000
        k(   30) = (   0.2037037   0.2037037   0.0000000), wk =   0.0400000
        k(   31) = (   0.1851852   0.1851852   0.0000000), wk =   0.0400000
        k(   32) = (   0.1666667   0.1666667   0.0000000), wk =   0.0400000
        k(   33) = (   0.1481481   0.1481481   0.0000000), wk =   0.0400000
        k(   34) = (   0.1296296   0.1296296   0.0000000), wk =   0.0400000
        k(   35) = (   0.1111111   0.1111111   0.0000000), wk =   0.0400000
        k(   36) = (   0.0925926   0.0925926   0.0000000), wk =   0.0400000
        k(   37) = (   0.0740741   0.0740741   0.0000000), wk =   0.0400000
        k(   38) = (   0.0555556   0.0555556   0.0000000), wk =   0.0400000
        k(   39) = (   0.0370370   0.0370370   0.0000000), wk =   0.0400000
        k(   40) = (   0.0185185   0.0185185   0.0000000), wk =   0.0400000
        k(   41) = (   0.0000000   0.0000000   0.0000000), wk =   0.0400000
        k(   42) = (   0.0000000   0.0000000   0.0555556), wk =   0.0400000
        k(   43) = (   0.0000000   0.0000000   0.1111111), wk =   0.0400000
        k(   44) = (   0.0000000   0.0000000   0.1666667), wk =   0.0400000
        k(   45) = (   0.0000000   0.0000000   0.2222222), wk =   0.0400000
        k(   46) = (   0.0000000   0.0000000   0.2777778), wk =   0.0400000
        k(   47) = (   0.0000000   0.0000000   0.3333333), wk =   0.0400000
        k(   48) = (   0.0000000   0.0000000   0.3888889), wk =   0.0400000
        k(   49) = (   0.0000000   0.0000000   0.4444444), wk =   0.0400000
        k(   50) = (   0.0000000   0.0000000   0.5000000), wk =   0.0400000

     Dense  grid:    26093 G-vectors     FFT dimensions: (  36,  36,  54)

     Smooth grid:    18653 G-vectors     FFT dimensions: (  30,  30,  48)

     Estimated max dynamical RAM per process >      27.40Mb

     The potential is recalculated from file :
     ./pwscf.save/charge-density.dat

     Starting wfc are    8 randomized atomic wfcs +    1 random wfc

     Band Structure Calculation
     Davidson diagonalization with overlap

     Computing kpt #:     1
     total cpu time spent up to now is        0.8 secs

     Computing kpt #:     2
     total cpu time spent up to now is        1.3 secs

     Computing kpt #:     3
     total cpu time spent up to now is        1.8 secs

     Computing kpt #:     4
     total cpu time spent up to now is        2.3 secs

     Computing kpt #:     5
     total cpu time spent up to now is        2.8 secs

     Computing kpt #:     6
     total cpu time spent up to now is        3.3 secs

     Computing kpt #:     7
     total cpu time spent up to now is        3.9 secs

     Computing kpt #:     8
     total cpu time spent up to now is        4.4 secs

     Computing kpt #:     9
     total cpu time spent up to now is        4.9 secs

     Computing kpt #:    10
     total cpu time spent up to now is        5.4 secs

     Computing kpt #:    11
     total cpu time spent up to now is        5.9 secs

     Computing kpt #:    12
     total cpu time spent up to now is        6.5 secs

     Computing kpt #:    13
     total cpu time spent up to now is        7.1 secs

     Computing kpt #:    14
     total cpu time spent up to now is        7.7 secs

     Computing kpt #:    15
     total cpu time spent up to now is        8.5 secs

     Computing kpt #:    16
     total cpu time spent up to now is        9.4 secs

     Computing kpt #:    17
     total cpu time spent up to now is       10.3 secs

     Computing kpt #:    18
     total cpu time spent up to now is       11.1 secs

     Computing kpt #:    19
     total cpu time spent up to now is       11.9 secs

     Computing kpt #:    20
     total cpu time spent up to now is       12.8 secs

     Computing kpt #:    21
     total cpu time spent up to now is       13.6 secs

     Computing kpt #:    22
     total cpu time spent up to now is       14.4 secs

     Computing kpt #:    23
     total cpu time spent up to now is       15.1 secs

     Computing kpt #:    24
     total cpu time spent up to now is       15.9 secs

     Computing kpt #:    25
     total cpu time spent up to now is       16.6 secs

     Computing kpt #:    26
     total cpu time spent up to now is       17.2 secs

     Computing kpt #:    27
     total cpu time spent up to now is       17.7 secs

     Computing kpt #:    28
     total cpu time spent up to now is       18.3 secs

     Computing kpt #:    29
     total cpu time spent up to now is       18.8 secs

     Computing kpt #:    30
     total cpu time spent up to now is       19.4 secs

     Computing kpt #:    31
     total cpu time spent up to now is       19.9 secs

     Computing kpt #:    32
     total cpu time spent up to now is       20.4 secs

     Computing kpt #:    33
     total cpu time spent up to now is       20.9 secs

     Computing kpt #:    34
     total cpu time spent up to now is       21.4 secs

     Computing kpt #:    35
     total cpu time spent up to now is       22.0 secs

     Computing kpt #:    36
     total cpu time spent up to now is       22.5 secs

     Computing kpt #:    37
     total cpu time spent up to now is       23.0 secs

     Computing kpt #:    38
     total cpu time spent up to now is       23.5 secs

     Computing kpt #:    39
     total cpu time spent up to now is       24.0 secs

     Computing kpt #:    40
     total cpu time spent up to now is       24.5 secs

     Computing kpt #:    41
     total cpu time spent up to now is       25.0 secs

     Computing kpt #:    42
     total cpu time spent up to now is       25.5 secs

     Computing kpt #:    43
     total cpu time spent up to now is       26.0 secs

     Computing kpt #:    44
     total cpu time spent up to now is       26.5 secs

     Computing kpt #:    45
     total cpu time spent up to now is       27.1 secs

     Computing kpt #:    46
     total cpu time spent up to now is       27.6 secs

     Computing kpt #:    47
     total cpu time spent up to now is       28.1 secs

     Computing kpt #:    48
     total cpu time spent up to now is       28.6 secs

     Computing kpt #:    49
     total cpu time spent up to now is       29.1 secs

     Computing kpt #:    50
     total cpu time spent up to now is       29.6 secs

     ethr =  1.00E-09,  avg # of iterations = 16.9

     total cpu time spent up to now is       29.6 secs

     End of band structure calculation

          k = 0.0000 0.0000 0.0000 (  2321 PWs)   bands (ev):

   -16.5029 -16.3112  -5.4030  -4.5372  -4.5372  -4.4401  -4.4401  -4.4365
     1.8859

          k = 0.0357 0.0206 0.0000 (  2323 PWs)   bands (ev):

   -16.5009 -16.3103  -5.3986  -4.5466  -4.5400  -4.4510  -4.4409  -4.4376
     1.9107

          k = 0.0714 0.0412 0.0000 (  2327 PWs)   bands (ev):

   -16.4949 -16.3075  -5.3855  -4.5747  -4.5482  -4.4825  -4.4435  -4.4410
     1.9842

          k = 0.1071 0.0619 0.0000 (  2323 PWs)   bands (ev):

   -16.4853 -16.3031  -5.3641  -4.6205  -4.5611  -4.5312  -4.4479  -4.4468
     2.1039

          k = 0.1429 0.0825 0.0000 (  2325 PWs)   bands (ev):

   -16.4722 -16.2973  -5.3349  -4.6825  -4.5925  -4.5777  -4.4550  -4.4542
     2.2657

          k = 0.1786 0.1031 0.0000 (  2325 PWs)   bands (ev):

   -16.4564 -16.2906  -5.2988  -4.7579  -4.6613  -4.5970  -4.4660  -4.4622
     2.4652

          k = 0.2143 0.1237 0.0000 (  2331 PWs)   bands (ev):

   -16.4383 -16.2834  -5.2567  -4.8423  -4.7336  -4.6179  -4.4798  -4.4716
     2.6974

          k = 0.2500 0.1443 0.0000 (  2337 PWs)   bands (ev):

   -16.4188 -16.2762  -5.2100  -4.9305  -4.8062  -4.6394  -4.4965  -4.4819
     2.9575

          k = 0.2857 0.1650 0.0000 (  2331 PWs)   bands (ev):

   -16.3985 -16.2696  -5.1599  -5.0175  -4.8760  -4.6603  -4.5164  -4.4925
     3.2410

          k = 0.3214 0.1856 0.0000 (  2319 PWs)   bands (ev):

   -16.3784 -16.2640  -5.1084  -5.0986  -4.9405  -4.6798  -4.5390  -4.5028
     3.5439

          k = 0.3571 0.2062 0.0000 (  2313 PWs)   bands (ev):

   -16.3594 -16.2599  -5.1701  -5.0573  -4.9970  -4.6970  -4.5639  -4.5122
     3.8630

          k = 0.3929 0.2268 0.0000 (  2316 PWs)   bands (ev):

   -16.3425 -16.2574  -5.2288  -5.0434  -5.0093  -4.7112  -4.5899  -4.5202
     4.1955

          k = 0.4286 0.2474 0.0000 (  2322 PWs)   bands (ev):

   -16.3287 -16.2564  -5.2725  -5.0779  -4.9682  -4.7218  -4.6144  -4.5262
     4.5390

          k = 0.4643 0.2681 0.0000 (  2318 PWs)   bands (ev):

   -16.3195 -16.2565  -5.2993  -5.0991  -4.9392  -4.7283  -4.6331  -4.5299
     4.8920

          k = 0.5000 0.2887 0.0000 (  2328 PWs)   bands (ev):

   -16.3163 -16.2567  -5.3084  -5.1063  -4.9284  -4.7305  -4.6403  -4.5312
     5.2269

          k = 0.4792 0.3248 0.0000 (  2314 PWs)   bands (ev):

   -16.3152 -16.2567  -5.3043  -5.1029  -4.9255  -4.7384  -4.6420  -4.5395
     5.2368

          k = 0.4583 0.3608 0.0000 (  2328 PWs)   bands (ev):

   -16.3123 -16.2567  -5.2923  -5.0929  -4.9167  -4.7615  -4.6473  -4.5638
     5.2661

          k = 0.4375 0.3969 0.0000 (  2326 PWs)   bands (ev):

   -16.3076 -16.2568  -5.2728  -5.0767  -4.9023  -4.7974  -4.6563  -4.6016
     5.3137

          k = 0.4167 0.4330 0.0000 (  2328 PWs)   bands (ev):

   -16.3014 -16.2574  -5.2469  -5.0553  -4.8828  -4.8425  -4.6692  -4.6496
     5.3780

          k = 0.3958 0.4691 0.0000 (  2340 PWs)   bands (ev):

   -16.2942 -16.2588  -5.2161  -5.0303  -4.8920  -4.8587  -4.7029  -4.6864
     5.4569

          k = 0.3750 0.5052 0.0000 (  2330 PWs)   bands (ev):

   -16.2865 -16.2613  -5.1837  -5.0048  -4.9392  -4.8307  -4.7549  -4.7081
     5.5470

          k = 0.3542 0.5413 0.0000 (  2324 PWs)   bands (ev):

   -16.2786 -16.2653  -5.1564  -4.9853  -4.9743  -4.7996  -4.7957  -4.7347
     5.6390

          k = 0.3333 0.5774 0.0000 (  2316 PWs)   bands (ev):

   -16.2712 -16.2712  -5.1456  -4.9827  -4.9827  -4.8115  -4.7663  -4.7663
     5.6938

          k = 0.3148 0.5453 0.0000 (  2325 PWs)   bands (ev):

   -16.2783 -16.2655  -5.1517  -4.9965  -4.9641  -4.8006  -4.7986  -4.7356
     5.6062

          k = 0.2963 0.5132 0.0000 (  2333 PWs)   bands (ev):

   -16.2873 -16.2608  -5.1617  -5.0154  -4.9305  -4.8347  -4.7750  -4.7044
     5.3676

          k = 0.2778 0.4811 0.0000 (  2331 PWs)   bands (ev):

   -16.2982 -16.2574  -5.1664  -5.0306  -4.8904  -4.8744  -4.7425  -4.6735
     5.0725

          k = 0.2593 0.4491 0.0000 (  2333 PWs)   bands (ev):

   -16.3110 -16.2555  -5.1612  -5.0375  -4.9172  -4.8481  -4.7076  -4.6433
     4.7616

          k = 0.2407 0.4170 0.0000 (  2329 PWs)   bands (ev):

   -16.3256 -16.2552  -5.1442  -5.0340  -4.9626  -4.8058  -4.6722  -4.6143
     4.4485

          k = 0.2222 0.3849 0.0000 (  2339 PWs)   bands (ev):

   -16.3418 -16.2565  -5.1147  -5.0195  -5.0099  -4.7649  -4.6378  -4.5870
     4.1393

          k = 0.2037 0.3528 0.0000 (  2333 PWs)   bands (ev):

   -16.3592 -16.2593  -5.0729  -5.0582  -4.9939  -4.7261  -4.6051  -4.5617
     3.8382

          k = 0.1852 0.3208 0.0000 (  2321 PWs)   bands (ev):

   -16.3774 -16.2634  -5.1067  -5.0199  -4.9583  -4.6902  -4.5747  -4.5387
     3.5481

          k = 0.1667 0.2887 0.0000 (  2331 PWs)   bands (ev):

   -16.3961 -16.2687  -5.1544  -4.9572  -4.9141  -4.6575  -4.5471  -4.5180
     3.2718

          k = 0.1481 0.2566 0.0000 (  2325 PWs)   bands (ev):

   -16.4147 -16.2747  -5.2003  -4.8873  -4.8631  -4.6282  -4.5226  -4.4999
     3.0119

          k = 0.1296 0.2245 0.0000 (  2323 PWs)   bands (ev):

   -16.4327 -16.2812  -5.2435  -4.8129  -4.8079  -4.6023  -4.5012  -4.4842
     2.7712

          k = 0.1111 0.1925 0.0000 (  2317 PWs)   bands (ev):

   -16.4495 -16.2878  -5.2830  -4.7511  -4.7378  -4.5794  -4.4831  -4.4709
     2.5527

          k = 0.0926 0.1604 0.0000 (  2331 PWs)   bands (ev):

   -16.4648 -16.2941  -5.3180  -4.6957  -4.6663  -4.5587  -4.4683  -4.4600
     2.3595

          k = 0.0741 0.1283 0.0000 (  2327 PWs)   bands (ev):

   -16.4779 -16.2998  -5.3477  -4.6446  -4.6054  -4.5371  -4.4568  -4.4514
     2.1950

          k = 0.0556 0.0962 0.0000 (  2329 PWs)   bands (ev):

   -16.4886 -16.3046  -5.3715  -4.6007  -4.5657  -4.5076  -4.4486  -4.4448
     2.0626

          k = 0.0370 0.0642 0.0000 (  2325 PWs)   bands (ev):

   -16.4964 -16.3082  -5.3889  -4.5666  -4.5475  -4.4735  -4.4434  -4.4401
     1.9654

          k = 0.0185 0.0321 0.0000 (  2327 PWs)   bands (ev):

   -16.5013 -16.3104  -5.3994  -4.5447  -4.5395  -4.4489  -4.4408  -4.4374
     1.9059

          k = 0.0000 0.0000 0.0000 (  2321 PWs)   bands (ev):

   -16.5029 -16.3112  -5.4030  -4.5372  -4.5372  -4.4401  -4.4401  -4.4365
     1.8859

          k = 0.0000 0.0000 0.0342 (  2333 PWs)   bands (ev):

   -16.5015 -16.3127  -5.3966  -4.5365  -4.5365  -4.4452  -4.4409  -4.4409
     1.9030

          k = 0.0000 0.0000 0.0685 (  2334 PWs)   bands (ev):

   -16.4973 -16.3172  -5.3776  -4.5343  -4.5343  -4.4709  -4.4431  -4.4431
     1.9538

          k = 0.0000 0.0000 0.1027 (  2352 PWs)   bands (ev):

   -16.4905 -16.3245  -5.3464  -4.5307  -4.5307  -4.5124  -4.4467  -4.4467
     2.0370

          k = 0.0000 0.0000 0.1370 (  2364 PWs)   bands (ev):

   -16.4811 -16.3343  -5.3037  -4.5675  -4.5259  -4.5259  -4.4515  -4.4515
     2.1508

          k = 0.0000 0.0000 0.1712 (  2352 PWs)   bands (ev):

   -16.4696 -16.3464  -5.2502  -4.6340  -4.5199  -4.5199  -4.4575  -4.4575
     2.2925

          k = 0.0000 0.0000 0.2054 (  2358 PWs)   bands (ev):

   -16.4562 -16.3604  -5.1873  -4.7090  -4.5130  -4.5130  -4.4644  -4.4644
     2.4596

          k = 0.0000 0.0000 0.2397 (  2364 PWs)   bands (ev):

   -16.4413 -16.3758  -5.1163  -4.7897  -4.5054  -4.5054  -4.4721  -4.4721
     2.6490

          k = 0.0000 0.0000 0.2739 (  2364 PWs)   bands (ev):

   -16.4253 -16.3920  -5.0390  -4.8734  -4.4972  -4.4972  -4.4803  -4.4803
     2.8581

          k = 0.0000 0.0000 0.3081 (  2352 PWs)   bands (ev):

   -16.4087 -16.4087  -4.9573  -4.9573  -4.4888  -4.4888  -4.4888  -4.4888
     3.0841

     Writing output data file pwscf.save

     init_run     :      0.27s CPU      0.31s WALL (       1 calls)
     electrons    :     61.34s CPU     29.24s WALL (       1 calls)

     Called by init_run:
     wfcinit      :      0.00s CPU      0.00s WALL (       1 calls)
     wfcinit:atom :      0.02s CPU      0.04s WALL (      50 calls)
     wfcinit:wfcr :      6.27s CPU      2.94s WALL (      50 calls)
     potinit      :      0.06s CPU      0.08s WALL (       1 calls)

     Called by electrons:
     c_bands      :     61.34s CPU     29.23s WALL (       1 calls)
     v_of_rho     :      0.06s CPU      0.06s WALL (       1 calls)
     v_h          :      0.00s CPU      0.00s WALL (       1 calls)
     v_xc         :      0.06s CPU      0.06s WALL (       1 calls)
     newd         :      0.03s CPU      0.04s WALL (       1 calls)

     Called by c_bands:
     init_us_2    :      0.16s CPU      0.05s WALL (      50 calls)
     cegterg      :     54.61s CPU     26.04s WALL (      61 calls)

     Called by sum_band:

     Called by *egterg:
     h_psi        :     53.97s CPU     25.55s WALL (     954 calls)
     s_psi        :      0.61s CPU      0.20s WALL (     954 calls)
     g_psi        :      0.14s CPU      0.09s WALL (     843 calls)
     cdiaghg      :      2.08s CPU      1.09s WALL (     893 calls)
     cegterg:over :      1.89s CPU      0.79s WALL (     843 calls)
     cegterg:upda :      1.09s CPU      0.67s WALL (     843 calls)
     cegterg:last :      0.42s CPU      0.28s WALL (     133 calls)

     Called by h_psi:
     h_psi:pot    :     53.84s CPU     25.47s WALL (     954 calls)
     h_psi:calbec :      0.20s CPU      0.27s WALL (     954 calls)
     vloc_psi     :     53.06s CPU     24.88s WALL (     954 calls)
     add_vuspsi   :      0.58s CPU      0.30s WALL (     954 calls)

     General routines
     calbec       :      0.17s CPU      0.25s WALL (     954 calls)
     fft          :      0.03s CPU      0.03s WALL (      13 calls)
     ffts         :      0.00s CPU      0.00s WALL (       1 calls)
     fftw         :     50.58s CPU     23.72s WALL (    7962 calls)
     interpolate  :      0.00s CPU      0.01s WALL (       1 calls)
     davcio       :      0.00s CPU      0.01s WALL (      50 calls)

     Parallel routines
     fft_scatter  :      1.34s CPU      0.50s WALL (    7976 calls)

     PWSCF        :  1m 1.94s CPU     0m29.91s WALL


   This run was terminated on:  11:10:24  25Feb2021            

=------------------------------------------------------------------------------=
   JOB DONE.
=------------------------------------------------------------------------------=
