element =  Y
struct =  hcp
nbands =  -4
path =  GMKGA
kpts =  (8,8,4)

  ___ ___ ___ _ _ _  
 |   |   |_  | | | | 
 | | | | | . | | | | 
 |__ |  _|___|_____|  1.3.1b1
 |___|_|             

User:   inukai@DESKTOP-12SE80T
Date:   Tue Feb  2 23:20:49 2021
Arch:   x86_64
Pid:    3680
Python: 3.6.9
gpaw:   /usr/lib/python3/dist-packages/gpaw
_gpaw:  /usr/lib/python3/dist-packages/_gpaw.cpython-36m-x86_64-linux-gnu.so
ase:    /home/inukai/hotcent/ase-3.19.3/ase (version 3.19.3)
numpy:  /home/inukai/.local/lib/python3.6/site-packages/numpy (version 1.19.5)
scipy:  /home/inukai/.local/lib/python3.6/site-packages/scipy (version 1.5.4)
units:  Angstrom and eV
cores:  1

Input parameters:
  kpts: [8 8 4]
  maxiter: 200
  mixer: {backend: pulay,
          beta: 0.05,
          method: separate,
          nmaxold: 8,
          weight: 100}
  mode: {ecut: 400.0,
         name: pw}
  occupations: {name: fermi-dirac,
                width: 0.02}
  spinpol: False
  xc: PBE

System changes: positions, numbers, cell, pbc, initial_charges, initial_magmoms 

Initialize ...

Y-setup:
  name: Yttrium
  id: 5960f59baf8c0e8d097f1949c1991665
  Z: 39
  valence: 11
  core: 28
  charge: 0.0
  file: /usr/share/gpaw-setups/Y.PBE.gz
  cutoffs: 1.28(comp), 2.39(filt), 1.70(core), lmax=2
  valence states:
                energy  radius
    4s(2.00)   -47.973   1.328
    5s(2.00)    -4.101   1.328
    4p(6.00)   -27.921   1.318
    5p(0.00)    -1.441   1.318
    4d(1.00)    -2.517   1.286
    *d          24.695   1.286

  Using partial waves for Y as LCAO basis

Reference energy: -184182.767865

Spin-paired calculation

Occupation numbers:
  Fermi-Dirac: width=0.0200 eV

Convergence criteria:
  Maximum total energy change: 0.0005 eV / electron
  Maximum integral of absolute density change: 0.0001 electrons
  Maximum integral of absolute eigenstate change: 4e-08 eV^2
  Maximum number of iterations: 200

Symmetries present (total): 12

  ( 1  1  0)  ( 1  1  0)  ( 1  0  0)  ( 1  0  0)  ( 0  1  0)  ( 0  1  0)
  ( 0 -1  0)  ( 0 -1  0)  ( 0  1  0)  ( 0  1  0)  (-1 -1  0)  (-1 -1  0)
  ( 0  0  1)  ( 0  0 -1)  ( 0  0  1)  ( 0  0 -1)  ( 0  0  1)  ( 0  0 -1)

  ( 0 -1  0)  ( 0 -1  0)  (-1  0  0)  (-1  0  0)  (-1 -1  0)  (-1 -1  0)
  (-1  0  0)  (-1  0  0)  ( 1  1  0)  ( 1  1  0)  ( 1  0  0)  ( 1  0  0)
  ( 0  0  1)  ( 0  0 -1)  ( 0  0  1)  ( 0  0 -1)  ( 0  0  1)  ( 0  0 -1)
Note: your k-points are not as symmetric as your crystal!

256 k-points: 8 x 8 x 4 Monkhorst-Pack grid
40 k-points in the irreducible part of the Brillouin zone
       k-points in crystal coordinates                weights
   0:     0.06250000   -0.06250000    0.12500000          4/256
   1:     0.06250000   -0.06250000    0.37500000          4/256
   2:     0.06250000    0.06250000    0.12500000          4/256
   3:     0.06250000    0.06250000    0.37500000          4/256
   4:     0.18750000   -0.18750000    0.12500000          4/256
   5:     0.18750000   -0.18750000    0.37500000          4/256
   6:     0.18750000   -0.06250000    0.12500000          8/256
   7:     0.18750000   -0.06250000    0.37500000          8/256
   8:     0.18750000    0.06250000    0.12500000          8/256
   9:     0.18750000    0.06250000    0.37500000          8/256
          ...
  39:     0.43750000    0.43750000    0.37500000          4/256

Wave functions: Plane wave expansion
  Cutoff energy: 400.000 eV
  Number of coefficients (min, max): 1180, 1215
  Using FFTW library
  Eigensolver: None  MatrixOperator buffer_size: default value or 
                              see value of nblock in input file
Diagonalizer layout: Serial LAPACKOrthonormalizer layout: Serial LAPACK 

Davidson(niter=1, smin=None, normalize=True) 

Densities:
  Coarse grid: 15*15*27 grid
  Fine grid: 30*30*54 grid
  Total Charge: 0.000000 

Density mixing:
  Method: separate
  Backend: pulay
  Linear mixing parameter: 0.05
  Mixing with 8 old densities
  Damping of long wave oscillations: 100 

Hamiltonian:
  XC and Coulomb potentials evaluated on a 30*30*54 grid
  Using the PBE Exchange-Correlation functional
 

Memory estimate:
  Process memory now: 925.32 MiB
  Calculator: 30.95 MiB
    Density: 2.84 MiB
      Arrays: 1.21 MiB
      Localized functions: 0.89 MiB
      Mixer: 0.74 MiB
    Hamiltonian: 0.81 MiB
      Arrays: 0.79 MiB
      XC: 0.00 MiB
      Poisson: 0.00 MiB
      vbar: 0.02 MiB
    Wavefunctions: 27.30 MiB
      Arrays psit_nG: 19.28 MiB
      Eigensolver: 0.68 MiB
      Projections: 0.57 MiB
      Projectors: 5.50 MiB
      Overlap op: 0.49 MiB
      PW-descriptor: 0.78 MiB

Total number of cores used: 1

Number of atoms: 2
Number of atomic orbitals: 26
Number of bands in calculation: 26
Bands to converge: occupied states only
Number of valence electrons: 22

... initialized

Initializing position-dependent things.

Density initialized from atomic densities
Creating initial wave functions:
  26 bands from LCAO basis set

                  
                  
                  
                  
         Y        
                  
                  
                  
       Y          
                  
                  
                  
                  

Positions:
   0 Y      0.000000    0.000000    0.000000
   1 Y     -0.000000    2.107328    2.867075

Unit cell:
           periodic     x           y           z      points  spacing
  1. axis:    yes    3.650000    0.000000    0.000000    15     0.2107
  2. axis:    yes   -1.825000    3.160993    0.000000    15     0.2107
  3. axis:    yes    0.000000    0.000000    5.734150    27     0.2124

  Lengths:   3.650000   3.650000   5.734150
  Angles:   90.000000  90.000000 120.000000

Effective grid spacing dv^(1/3) = 0.2217

                     log10-error:    total        iterations:
           time      wfs    density  energy       fermi  poisson
iter:   1  23:20:55  +2.02   +inf    -9.419494    3             
iter:   2  23:20:58  -0.44   +inf    -9.452992    3             
iter:   3  23:21:00  -1.15   +inf    -9.458479    2             
iter:   4  23:21:04  -1.77  -1.47    -9.434273    4             
iter:   5  23:21:07  -0.50  -1.49    -9.327605    5             
iter:   6  23:21:10  -1.78  -2.12    -9.335183    3             
iter:   7  23:21:14  -2.05  -2.19    -9.325471    3             
iter:   8  23:21:17  -2.79  -2.45    -9.325106    3             
iter:   9  23:21:20  -3.80  -2.91    -9.325122    2             
iter:  10  23:21:24  -4.02  -2.90    -9.325036    3             
iter:  11  23:21:27  -3.54  -3.01    -9.324755    3             
iter:  12  23:21:30  -4.80  -3.51    -9.324754    2             
iter:  13  23:21:34  -5.48  -3.52    -9.324756    2             
iter:  14  23:21:37  -4.62  -3.57    -9.324762    2             
iter:  15  23:21:40  -5.37  -3.28    -9.324773    2             
iter:  16  23:21:44  -6.18  -3.27    -9.324770    2             
iter:  17  23:21:47  -3.98  -3.28    -9.324765    3             
iter:  18  23:21:50  -5.01  -3.98    -9.324763    2             
iter:  19  23:21:54  -6.11  -4.18    -9.324761    2             
iter:  20  23:21:57  -6.56  -3.93    -9.324762    2             
iter:  21  23:22:00  -5.98  -4.22    -9.324761    2             
iter:  22  23:22:04  -7.33  -5.16    -9.324761    2             
iter:  23  23:22:07  -7.92  -5.24    -9.324761    2             

Converged after 23 iterations.

Dipole moment: (-2.951289, 1.703927, 0.000000) |e|*Ang

Energy contributions relative to reference atoms: (reference = -184182.767865)

Kinetic:         +0.904324
Potential:       +0.276712
External:        +0.000000
XC:             -10.165153
Entropy (-ST):   -0.006923
Local:           -0.337183
--------------------------
Free energy:     -9.328223
Extrapolated:    -9.324761

Fermi level: 6.33977

Warning: Showing only first 2 kpts
 Kpt  Band  Eigenvalues  Occupancy
  0     9      4.54342    0.03125
  0    10      7.03176    0.00000
  0    11      7.86967    0.00000
  0    12      8.13460    0.00000

  1     9      3.79731    0.03125
  1    10      6.98858    0.00000
  1    11      7.63286    0.00000
  1    12      7.88703    0.00000


Input parameters:
  convergence: {bands: all}
  eigensolver: {name: cg,
                niter: 5}
  fixdensity: True
  kpts: {npoints: 50,
         path: GMKGA}
  nbands: -4
  symmetry: off

Initialize ...

Y-setup:
  name: Yttrium
  id: 5960f59baf8c0e8d097f1949c1991665
  Z: 39
  valence: 11
  core: 28
  charge: 0.0
  file: /usr/share/gpaw-setups/Y.PBE.gz
  cutoffs: 1.28(comp), 2.39(filt), 1.70(core), lmax=2
  valence states:
                energy  radius
    4s(2.00)   -47.973   1.328
    5s(2.00)    -4.101   1.328
    4p(6.00)   -27.921   1.318
    5p(0.00)    -1.441   1.318
    4d(1.00)    -2.517   1.286
    *d          24.695   1.286

  Using partial waves for Y as LCAO basis

Reference energy: -184182.767865

Spin-paired calculation

Occupation numbers:
  Fixed Fermi level
  Fermi-Dirac: width=0.0200 eV

Convergence criteria:
  Maximum total energy change: 0.0005 eV / electron
  Maximum integral of absolute density change: 0.0001 electrons
  Maximum integral of absolute eigenstate change: 4e-08 eV^2
  Maximum number of iterations: 200

Symmetries present (total): 1

  ( 1  0  0)
  ( 0  1  0)
  ( 0  0  1)

50 k-points
50 k-points in the irreducible part of the Brillouin zone
       k-points in crystal coordinates                weights
   0:     0.00000000    0.00000000    0.00000000          1/50
   1:     0.03571429    0.00000000    0.00000000          1/50
   2:     0.07142857    0.00000000    0.00000000          1/50
   3:     0.10714286    0.00000000    0.00000000          1/50
   4:     0.14285714    0.00000000    0.00000000          1/50
   5:     0.17857143    0.00000000    0.00000000          1/50
   6:     0.21428571    0.00000000    0.00000000          1/50
   7:     0.25000000    0.00000000    0.00000000          1/50
   8:     0.28571429    0.00000000    0.00000000          1/50
   9:     0.32142857    0.00000000    0.00000000          1/50
          ...
  49:     0.00000000    0.00000000    0.50000000          1/50

Wave functions: Plane wave expansion
  Cutoff energy: 400.000 eV
  Number of coefficients (min, max): 1177, 1218
  Using FFTW library
  Eigensolver: None  MatrixOperator buffer_size: default value or 
                              see value of nblock in input file
Diagonalizer layout: Serial LAPACKOrthonormalizer layout: Serial LAPACK 

CG(niter=5, rtol=3.0e-01) 

No density mixing

Memory estimate:
  Process memory now: 991.46 MiB
  Calculator: 26.42 MiB
    Density: 2.84 MiB
      Arrays: 1.21 MiB
      Localized functions: 0.89 MiB
      Mixer: 0.74 MiB
    Hamiltonian: 0.81 MiB
      Arrays: 0.79 MiB
      XC: 0.00 MiB
      Poisson: 0.00 MiB
      vbar: 0.02 MiB
    Wavefunctions: 22.77 MiB
      Arrays psit_nG: 13.94 MiB
      Eigensolver: 0.37 MiB
      Projections: 0.41 MiB
      Projectors: 6.85 MiB
      Overlap op: 0.28 MiB
      PW-descriptor: 0.92 MiB

Total number of cores used: 1

Number of atoms: 2
Number of atomic orbitals: 26
Number of bands in calculation: 15
Bands to converge: all
Number of valence electrons: 22

... initialized

Initializing position-dependent things.

Creating initial wave functions:
  15 bands from LCAO basis set

                  
                  
                  
                  
         Y        
                  
                  
                  
       Y          
                  
                  
                  
                  

Positions:
   0 Y      0.000000    0.000000    0.000000
   1 Y     -0.000000    2.107328    2.867075

Unit cell:
           periodic     x           y           z      points  spacing
  1. axis:    yes    3.650000    0.000000    0.000000    15     0.2107
  2. axis:    yes   -1.825000    3.160993    0.000000    15     0.2107
  3. axis:    yes    0.000000    0.000000    5.734150    27     0.2124

  Lengths:   3.650000   3.650000   5.734150
  Angles:   90.000000  90.000000 120.000000

Effective grid spacing dv^(1/3) = 0.2217

                     log10-error:    total        iterations:
           time      wfs    density  energy       fermi  poisson
iter:   1  23:22:16  +0.60          -10.763948    4             
iter:   2  23:22:24  -0.46          -10.794082    5             
iter:   3  23:22:31  -1.25          -10.797902    5             
iter:   4  23:22:39  -2.11          -10.798546    5             
iter:   5  23:22:48  -2.85          -10.798702    5             
iter:   6  23:22:56  -3.65          -10.798721    5             
iter:   7  23:23:05  -4.30          -10.798725    5             
iter:   8  23:23:13  -5.06          -10.798726    5             
iter:   9  23:23:20  -5.70          -10.798726    5             
iter:  10  23:23:24  -6.41          -10.798726    5             
iter:  11  23:23:28  -7.05          -10.798726    5             
iter:  12  23:23:31  -7.67          -10.798726    5             

Converged after 12 iterations.

Dipole moment: (-2.951289, 1.703927, 0.000000) |e|*Ang

Energy contributions relative to reference atoms: (reference = -184182.767865)

Kinetic:         -0.572355
Potential:       +0.276703
External:        +0.000000
XC:             -10.165159
Entropy (-ST):   -0.001474
Local:           -0.337178
--------------------------
Free energy:    -10.799463
Extrapolated:   -10.798726

Fixed Fermi level: 6.33977

Warning: Showing only first 2 kpts
 Kpt  Band  Eigenvalues  Occupancy
  0     9      4.54299    0.04000
  0    10      7.20436    0.00000
  0    11      8.12042    0.00000
  0    12      8.12537    0.00000

  1     9      4.56872    0.04000
  1    10      7.17655    0.00000
  1    11      8.02790    0.00000
  1    12      8.14671    0.00000


Timing:                              incl.     excl.
-----------------------------------------------------------
Hamiltonian:                         1.020     0.001   0.0% |
 Atomic:                             0.774     0.004   0.0% |
  XC Correction:                     0.770     0.770   0.5% |
 Calculate atomic Hamiltonians:      0.038     0.038   0.0% |
 Communicate:                        0.000     0.000   0.0% |
 Initialize Hamiltonian:             0.000     0.000   0.0% |
 Poisson:                            0.001     0.001   0.0% |
 XC 3D grid:                         0.206     0.206   0.1% |
LCAO initialization:                 4.064     0.409   0.3% |
 LCAO eigensolver:                   1.046     0.009   0.0% |
  Calculate projections:             0.007     0.007   0.0% |
  DenseAtomicCorrection:             0.025     0.025   0.0% |
  Distribute overlap matrix:         0.004     0.004   0.0% |
  Orbital Layouts:                   0.147     0.147   0.1% |
  Potential matrix:                  0.309     0.309   0.2% |
  Sum over cells:                    0.545     0.545   0.3% |
 LCAO to grid:                       1.796     1.796   1.1% |
 Set positions (LCAO WFS):           0.812     0.001   0.0% |
  Basic WFS set positions:           0.001     0.001   0.0% |
  Basis functions set positions:     0.000     0.000   0.0% |
  TCI: Calculate S, T, P:            0.810     0.810   0.5% |
PWDescriptor:                        0.042     0.042   0.0% |
Redistribute:                        0.000     0.000   0.0% |
SCF-cycle:                         154.838     1.551   1.0% |
 CG:                                71.159    65.939  40.6% |---------------|
  CG: orthonormalize:                5.219     2.636   1.6% ||
   CG: overlap:                      1.694     1.694   1.0% |
   CG: overlap2:                     0.889     0.889   0.5% |
 Davidson:                          39.975    17.305  10.6% |---|
  calc. matrices:                   15.831    15.831   9.7% |---|
  diagonalize:                       5.888     5.888   3.6% ||
  rotate_psi:                        0.951     0.951   0.6% |
 Density:                            6.991     0.001   0.0% |
  Atomic density matrices:           0.048     0.048   0.0% |
  Mix:                               0.485     0.485   0.3% |
  Multipole moments:                 0.003     0.003   0.0% |
  Pseudo density:                    6.454     6.348   3.9% |-|
   Symmetrize density:               0.106     0.106   0.1% |
 Hamiltonian:                       10.004     0.019   0.0% |
  Atomic:                            8.092     0.040   0.0% |
   XC Correction:                    8.052     8.052   5.0% |-|
  Calculate atomic Hamiltonians:     0.343     0.343   0.2% |
  Communicate:                       0.000     0.000   0.0% |
  Poisson:                           0.010     0.010   0.0% |
  XC 3D grid:                        1.539     1.539   0.9% |
 Orthonormalize:                     0.373     0.008   0.0% |
  Band Layouts:                      0.010     0.002   0.0% |
   Inverse Cholesky:                 0.008     0.008   0.0% |
  calc_s_matrix:                     0.053     0.053   0.0% |
  projections:                       0.255     0.255   0.2% |
  rotate_psi:                        0.048     0.048   0.0% |
 Residuals:                          2.003     2.003   1.2% |
 Subspace diag:                     22.781     0.234   0.1% |
  Band Layouts:                      1.604     0.063   0.0% |
   Diagonalize:                      1.493     1.493   0.9% |
   Distribute results:               0.049     0.049   0.0% |
  calc_h_matrix:                    19.651    19.651  12.1% |----|
  rotate_psi:                        1.292     1.292   0.8% |
Set symmetry:                        0.023     0.023   0.0% |
Other:                               2.532     2.532   1.6% ||
-----------------------------------------------------------
Total:                                       162.519 100.0%

Date: Tue Feb  2 23:23:31 2021
element =  Y
struct =  hcp
kpts =  (8,8,4)
element =  Y
configuration =  [Kr] 4d1 5s2 5p0
valence =  ['4d', '5s', '5p']
occupations =  {'4d': 1, '5s': 2}
nls =  4d
rNum =  600
lmax =  d
*******************************************
Starting confinement parameter optimization
Adjustable parameters and initial values:
  Y_4d.r0 : 7.180959
  Y_5p.r0 : 7.180959
  Y_5s.r0 : 7.180959
  Y_n.r0 : 10.771439
*******************************************

OPT_VAL: 7.180959278180327   7.180959278180327   7.180959278180327   10.77143891727049
VCONF:
  Y_4d : PowerConfinement(r0=7.180959, s=2.000000)
  Y_5p : PowerConfinement(r0=7.180959, s=2.000000)
  Y_5s : PowerConfinement(r0=7.180959, s=2.000000)
  Y_n : PowerConfinement(r0=10.771439, s=2.000000)
RESIDUAL: 0.0

OPT_VAL: 7.3809592781803275   7.180959278180327   7.180959278180327   10.77143891727049
VCONF:
  Y_4d : PowerConfinement(r0=7.380959, s=2.000000)
  Y_5p : PowerConfinement(r0=7.180959, s=2.000000)
  Y_5s : PowerConfinement(r0=7.180959, s=2.000000)
  Y_n : PowerConfinement(r0=10.771439, s=2.000000)
RESIDUAL: 0.0

OPT_VAL: 7.180959278180327   7.3809592781803275   7.180959278180327   10.77143891727049
VCONF:
  Y_4d : PowerConfinement(r0=7.180959, s=2.000000)
  Y_5p : PowerConfinement(r0=7.380959, s=2.000000)
  Y_5s : PowerConfinement(r0=7.180959, s=2.000000)
  Y_n : PowerConfinement(r0=10.771439, s=2.000000)
RESIDUAL: 0.0

OPT_VAL: 7.180959278180327   7.180959278180327   7.3809592781803275   10.77143891727049
VCONF:
  Y_4d : PowerConfinement(r0=7.180959, s=2.000000)
  Y_5p : PowerConfinement(r0=7.180959, s=2.000000)
  Y_5s : PowerConfinement(r0=7.380959, s=2.000000)
  Y_n : PowerConfinement(r0=10.771439, s=2.000000)
RESIDUAL: 0.0

OPT_VAL: 7.180959278180327   7.180959278180327   7.180959278180327   10.97143891727049
VCONF:
  Y_4d : PowerConfinement(r0=7.180959, s=2.000000)
  Y_5p : PowerConfinement(r0=7.180959, s=2.000000)
  Y_5s : PowerConfinement(r0=7.180959, s=2.000000)
  Y_n : PowerConfinement(r0=10.971439, s=2.000000)
RESIDUAL: 0.0

OPT_VAL: 7.205959278180328   7.180959278180327   7.180959278180327   10.77143891727049
VCONF:
  Y_4d : PowerConfinement(r0=7.205959, s=2.000000)
  Y_5p : PowerConfinement(r0=7.180959, s=2.000000)
  Y_5s : PowerConfinement(r0=7.180959, s=2.000000)
  Y_n : PowerConfinement(r0=10.771439, s=2.000000)
RESIDUAL: 0.0

OPT_VAL: 7.180959278180327   7.205959278180328   7.180959278180327   10.77143891727049
VCONF:
  Y_4d : PowerConfinement(r0=7.180959, s=2.000000)
  Y_5p : PowerConfinement(r0=7.205959, s=2.000000)
  Y_5s : PowerConfinement(r0=7.180959, s=2.000000)
  Y_n : PowerConfinement(r0=10.771439, s=2.000000)
RESIDUAL: 0.0

OPT_VAL: 7.180959278180327   7.180959278180327   7.205959278180328   10.77143891727049
VCONF:
  Y_4d : PowerConfinement(r0=7.180959, s=2.000000)
  Y_5p : PowerConfinement(r0=7.180959, s=2.000000)
  Y_5s : PowerConfinement(r0=7.205959, s=2.000000)
  Y_n : PowerConfinement(r0=10.771439, s=2.000000)
RESIDUAL: 0.0

OPT_VAL: 7.180959278180327   7.180959278180327   7.180959278180327   10.79643891727049
VCONF:
  Y_4d : PowerConfinement(r0=7.180959, s=2.000000)
  Y_5p : PowerConfinement(r0=7.180959, s=2.000000)
  Y_5s : PowerConfinement(r0=7.180959, s=2.000000)
  Y_n : PowerConfinement(r0=10.796439, s=2.000000)
RESIDUAL: 0.0

OPT_VAL: 7.185959278180327   7.180959278180327   7.180959278180327   10.77143891727049
VCONF:
  Y_4d : PowerConfinement(r0=7.185959, s=2.000000)
  Y_5p : PowerConfinement(r0=7.180959, s=2.000000)
  Y_5s : PowerConfinement(r0=7.180959, s=2.000000)
  Y_n : PowerConfinement(r0=10.771439, s=2.000000)
RESIDUAL: 0.0

OPT_VAL: 7.180959278180327   7.185959278180327   7.180959278180327   10.77143891727049
VCONF:
  Y_4d : PowerConfinement(r0=7.180959, s=2.000000)
  Y_5p : PowerConfinement(r0=7.185959, s=2.000000)
  Y_5s : PowerConfinement(r0=7.180959, s=2.000000)
  Y_n : PowerConfinement(r0=10.771439, s=2.000000)
RESIDUAL: 0.0

OPT_VAL: 7.180959278180327   7.180959278180327   7.185959278180327   10.77143891727049
VCONF:
  Y_4d : PowerConfinement(r0=7.180959, s=2.000000)
  Y_5p : PowerConfinement(r0=7.180959, s=2.000000)
  Y_5s : PowerConfinement(r0=7.185959, s=2.000000)
  Y_n : PowerConfinement(r0=10.771439, s=2.000000)
RESIDUAL: 0.0

OPT_VAL: 7.180959278180327   7.180959278180327   7.180959278180327   10.776438917270491
VCONF:
  Y_4d : PowerConfinement(r0=7.180959, s=2.000000)
  Y_5p : PowerConfinement(r0=7.180959, s=2.000000)
  Y_5s : PowerConfinement(r0=7.180959, s=2.000000)
  Y_n : PowerConfinement(r0=10.776439, s=2.000000)
RESIDUAL: 0.0

*******************************************
Optimization finished after 13 iterations
Adjustable parameters and final values:
  Y_4d.r0 : 7.180959
  Y_5p.r0 : 7.180959
  Y_5s.r0 : 7.180959
  Y_n.r0 : 10.771439
*******************************************

VCONF:
  Y_4d : PowerConfinement(r0=7.180959, s=2.000000)
  Y_5p : PowerConfinement(r0=7.180959, s=2.000000)
  Y_5s : PowerConfinement(r0=7.180959, s=2.000000)
  Y_n : PowerConfinement(r0=10.771439, s=2.000000)
