element =  I
struct =  orthorhombic
nbands =  -4
path =  GXSYGZURTZ,YT,UX,SR
kpts =  (8,8,8)

  ___ ___ ___ _ _ _  
 |   |   |_  | | | | 
 | | | | | . | | | | 
 |__ |  _|___|_____|  1.3.1b1
 |___|_|             

User:   inukai@DESKTOP-12SE80T
Date:   Sun Feb 14 10:51:30 2021
Arch:   x86_64
Pid:    13004
Python: 3.6.9
gpaw:   /usr/lib/python3/dist-packages/gpaw
_gpaw:  /usr/lib/python3/dist-packages/_gpaw.cpython-36m-x86_64-linux-gnu.so
ase:    /home/inukai/hotcent/ase-3.19.3/ase (version 3.19.3)
numpy:  /home/inukai/.local/lib/python3.6/site-packages/numpy (version 1.19.5)
scipy:  /home/inukai/.local/lib/python3.6/site-packages/scipy (version 1.5.4)
units:  Angstrom and eV
cores:  1

Input parameters:
  kpts: [8 8 8]
  maxiter: 1500
  mixer: {backend: pulay,
          beta: 0.05,
          method: separate,
          nmaxold: 5,
          weight: 50}
  mode: {ecut: 400.0,
         name: pw}
  occupations: {name: fermi-dirac,
                width: 0.02}
  spinpol: True
  xc: PBE

System changes: positions, numbers, cell, pbc, initial_charges, initial_magmoms 

Initialize ...

I-setup:
  name: Iodine
  id: 91405a398e4dfe788ff04f57531604ec
  Z: 53
  valence: 7
  core: 46
  charge: 0.0
  file: /usr/share/gpaw-setups/I.PBE.gz
  cutoffs: 1.16(comp), 2.06(filt), 2.90(core), lmax=2
  valence states:
                energy  radius
    5s(2.00)   -17.382   1.164
    5p(5.00)    -7.088   1.164
    *s           9.829   1.164
    *p          20.123   1.164
    *d           0.000   1.164

  Using partial waves for I as LCAO basis

Reference energy: -1548326.365330

Spin-polarized calculation.
Magnetic moment:  0.000000

Occupation numbers:
  Fermi-Dirac: width=0.0200 eV

Convergence criteria:
  Maximum total energy change: 0.0005 eV / electron
  Maximum integral of absolute density change: 0.0001 electrons
  Maximum integral of absolute eigenstate change: 4e-08 eV^2
  Maximum number of iterations: 1500

Symmetries present (total): 4

  ( 1  0  0)  ( 1  0  0)  (-1  0  0)  (-1  0  0)
  ( 0  1  0)  ( 0 -1  0)  ( 0  1  0)  ( 0 -1  0)
  ( 0  0  1)  ( 0  0 -1)  ( 0  0  1)  ( 0  0 -1)

512 k-points: 8 x 8 x 8 Monkhorst-Pack grid
128 k-points in the irreducible part of the Brillouin zone
       k-points in crystal coordinates                weights
   0:     0.06250000    0.06250000   -0.43750000          4/512
   1:     0.06250000    0.06250000   -0.31250000          4/512
   2:     0.06250000    0.06250000   -0.18750000          4/512
   3:     0.06250000    0.06250000   -0.06250000          4/512
   4:     0.06250000    0.06250000    0.06250000          4/512
   5:     0.06250000    0.06250000    0.18750000          4/512
   6:     0.06250000    0.06250000    0.31250000          4/512
   7:     0.06250000    0.06250000    0.43750000          4/512
   8:     0.06250000    0.18750000   -0.43750000          4/512
   9:     0.06250000    0.18750000   -0.31250000          4/512
          ...
 127:     0.43750000    0.43750000    0.43750000          4/512

Wave functions: Plane wave expansion
  Cutoff energy: 400.000 eV
  Number of coefficients (min, max): 7191, 7256
  Using FFTW library
  Eigensolver: None  MatrixOperator buffer_size: default value or 
                              see value of nblock in input file
Diagonalizer layout: Serial LAPACKOrthonormalizer layout: Serial LAPACK 

Davidson(niter=1, smin=None, normalize=True) 

Densities:
  Coarse grid: 40*21*48 grid
  Fine grid: 80*42*96 grid
  Total Charge: 0.000000 

Density mixing:
  Method: separate
  Backend: pulay
  Linear mixing parameter: 0.05
  Mixing with 5 old densities
  Damping of long wave oscillations: 50 

Hamiltonian:
  XC and Coulomb potentials evaluated on a 80*42*96 grid
  Using the PBE Exchange-Correlation functional
 

Memory estimate:
  Process memory now: 953.99 MiB
  Calculator: 1071.43 MiB
    Density: 24.55 MiB
      Arrays: 10.77 MiB
      Localized functions: 7.63 MiB
      Mixer: 6.15 MiB
    Hamiltonian: 8.15 MiB
      Arrays: 8.00 MiB
      XC: 0.00 MiB
      Poisson: 0.00 MiB
      vbar: 0.16 MiB
    Wavefunctions: 1038.73 MiB
      Arrays psit_nG: 907.00 MiB
      Eigensolver: 4.25 MiB
      Projections: 13.00 MiB
      Projectors: 98.79 MiB
      Overlap op: 3.56 MiB
      PW-descriptor: 12.12 MiB

Total number of cores used: 1

Number of atoms: 8
Number of atomic orbitals: 32
Number of bands in calculation: 32
Bands to converge: occupied states only
Number of valence electrons: 56

... initialized

Initializing position-dependent things.

Density initialized from atomic densities
Creating initial wave functions:
  32 bands from LCAO basis set

    .--------------------.  
   /|                    |  
  / |                    |  
 * I|                    |  
 |  |       I            |  
 |  |                    |  
 |  |        I           |  
 |  |                    |  
 I  I                    |  
 |  |                    |  
 |  |        I           |  
 |  |                    |  
 |  |         I          |  
 |I .--------------------.  
 | /                    /   
 |/                    /    
 *--------------------*     

Positions:
   0 I      0.000000    1.658191    1.236620
   1 I      0.000000    0.618918    6.328523
   2 I      0.000000    3.935300    3.855283
   3 I      0.000000    2.896027    8.947186
   4 I      4.288504    3.935300    1.236620
   5 I      4.288504    2.896027    6.328523
   6 I      4.288504    1.658191    3.855283
   7 I      4.288504    0.618918    8.947186

Unit cell:
           periodic     x           y           z      points  spacing
  1. axis:    yes    8.577007    0.000000    0.000000    40     0.2144
  2. axis:    yes    0.000000    4.554218    0.000000    21     0.2169
  3. axis:    yes    0.000000    0.000000   10.183806    48     0.2122

  Lengths:   8.577007   4.554218  10.183806
  Angles:   90.000000  90.000000  90.000000

Effective grid spacing dv^(1/3) = 0.2145

                     log10-error:    total        iterations:
           time      wfs    density  energy       fermi  poisson  magmom
iter:   1  10:54:43  +0.17   +inf   -12.172900    0               +0.0000
iter:   2  10:56:56  -0.90   +inf   -12.346161    0               +0.0000
iter:   3  10:59:09  -1.83   +inf   -12.369923    0               +0.0000
iter:   4  11:01:39  -2.42  -1.12   -12.296927    0               +0.0000
iter:   5  11:04:10  -1.14  -1.15   -11.802584    7               +0.0000
iter:   6  11:06:40  -2.01  -1.94   -11.816282    1               -0.0000
iter:   7  11:09:10  -2.98  -2.04   -11.807213    0               -0.0000
iter:   8  11:11:40  -2.81  -2.18   -11.805401    1               +0.0000
iter:   9  11:14:11  -2.80  -2.49   -11.811017    0               -0.0000
iter:  10  11:16:41  -3.62  -2.21   -11.806456    0               +0.0000
iter:  11  11:19:12  -3.26  -2.40   -11.804282    0               -0.0000
iter:  12  11:21:42  -4.04  -2.97   -11.804172    0               -0.0000
iter:  13  11:24:12  -4.38  -3.25   -11.804284    0               -0.0000
iter:  14  11:26:42  -4.69  -3.06   -11.804121    0               -0.0000
iter:  15  11:29:12  -5.34  -3.74   -11.804121    0               +0.0000
iter:  16  11:31:41  -6.21  -3.95   -11.804121    0               +0.0000
iter:  17  11:34:11  -6.70  -3.99   -11.804120    0               +0.0000
iter:  18  11:36:41  -6.43  -4.03   -11.804122    0               +0.0000
iter:  19  11:39:11  -7.09  -4.11   -11.804121    0               +0.0000
iter:  20  11:41:41  -6.85  -4.24   -11.804121    0               +0.0000
iter:  21  11:44:11  -7.65  -4.80   -11.804121    0               +0.0000

Converged after 21 iterations.

Dipole moment: (-0.000000, -0.000000, -0.000000) |e|*Ang

Total magnetic moment: 0.000000
Local magnetic moments:
   0 I  0.000000
   1 I  0.000000
   2 I  0.000000
   3 I  0.000000
   4 I  0.000000
   5 I  0.000000
   6 I  0.000000
   7 I  0.000000

Energy contributions relative to reference atoms: (reference = -1548326.365330)

Kinetic:        +14.574309
Potential:      -13.389385
External:        +0.000000
XC:             -12.955854
Entropy (-ST):   -0.000000
Local:           -0.033190
--------------------------
Free energy:    -11.804121
Extrapolated:   -11.804121

Spin contamination: 0.000000 electrons
Fermi level: 1.63219

Warning: Showing only first 2 kpts
                      Up                     Down
 Kpt  Band  Eigenvalues  Occupancy  Eigenvalues  Occupancy
  0    26      0.90135    0.00781      0.90135    0.00781
  0    27      1.01729    0.00781      1.01729    0.00781
  0    28      2.55195    0.00000      2.55195    0.00000
  0    29      2.57186    0.00000      2.57186    0.00000

  1    26      0.78023    0.00781      0.78023    0.00781
  1    27      1.11520    0.00781      1.11520    0.00781
  1    28      2.35946    0.00000      2.35946    0.00000
  1    29      2.36608    0.00000      2.36608    0.00000


Input parameters:
  convergence: {bands: all}
  eigensolver: {name: cg,
                niter: 5}
  fixdensity: True
  kpts: {npoints: 50,
         path: GXSYGZURTZ,YT,UX,SR}
  nbands: -4
  symmetry: off

Initialize ...

I-setup:
  name: Iodine
  id: 91405a398e4dfe788ff04f57531604ec
  Z: 53
  valence: 7
  core: 46
  charge: 0.0
  file: /usr/share/gpaw-setups/I.PBE.gz
  cutoffs: 1.16(comp), 2.06(filt), 2.90(core), lmax=2
  valence states:
                energy  radius
    5s(2.00)   -17.382   1.164
    5p(5.00)    -7.088   1.164
    *s           9.829   1.164
    *p          20.123   1.164
    *d           0.000   1.164

  Using partial waves for I as LCAO basis

Reference energy: -1548326.365330

Spin-polarized calculation.
Magnetic moment:  0.000000

Occupation numbers:
  Fixed Fermi level
  Fermi-Dirac: width=0.0200 eV

Convergence criteria:
  Maximum total energy change: 0.0005 eV / electron
  Maximum integral of absolute density change: 0.0001 electrons
  Maximum integral of absolute eigenstate change: 4e-08 eV^2
  Maximum number of iterations: 1500

Symmetries present (total): 1

  ( 1  0  0)
  ( 0  1  0)
  ( 0  0  1)

50 k-points
50 k-points in the irreducible part of the Brillouin zone
       k-points in crystal coordinates                weights
   0:     0.00000000    0.00000000    0.00000000          1/50
   1:     0.00000000   -0.10000000    0.00000000          1/50
   2:     0.00000000   -0.20000000    0.00000000          1/50
   3:     0.00000000   -0.30000000    0.00000000          1/50
   4:     0.00000000   -0.40000000    0.00000000          1/50
   5:     0.00000000   -0.50000000    0.00000000          1/50
   6:    -0.25000000   -0.50000000    0.00000000          1/50
   7:    -0.50000000   -0.50000000    0.00000000          1/50
   8:    -0.50000000   -0.41666667    0.00000000          1/50
   9:    -0.50000000   -0.33333333    0.00000000          1/50
          ...
  49:    -0.50000000   -0.50000000   -0.50000000          1/50

Wave functions: Plane wave expansion
  Cutoff energy: 400.000 eV
  Number of coefficients (min, max): 7176, 7262
  Using FFTW library
  Eigensolver: None  MatrixOperator buffer_size: default value or 
                              see value of nblock in input file
Diagonalizer layout: Serial LAPACKOrthonormalizer layout: Serial LAPACK 

CG(niter=5, rtol=3.0e-01) 

No density mixing

Memory estimate:
  Process memory now: 2128.02 MiB
  Calculator: 444.29 MiB
    Density: 24.55 MiB
      Arrays: 10.77 MiB
      Localized functions: 7.63 MiB
      Mixer: 6.15 MiB
    Hamiltonian: 8.15 MiB
      Arrays: 8.00 MiB
      XC: 0.00 MiB
      Poisson: 0.00 MiB
      vbar: 0.16 MiB
    Wavefunctions: 411.59 MiB
      Arrays psit_nG: 354.59 MiB
      Eigensolver: 4.10 MiB
      Projections: 5.08 MiB
      Projectors: 38.59 MiB
      Overlap op: 3.56 MiB
      PW-descriptor: 5.67 MiB

Total number of cores used: 1

Number of atoms: 8
Number of atomic orbitals: 32
Number of bands in calculation: 32
Bands to converge: all
Number of valence electrons: 56

... initialized

Initializing position-dependent things.

Creating initial wave functions:
  32 bands from LCAO basis set

    .--------------------.  
   /|                    |  
  / |                    |  
 * I|                    |  
 |  |       I            |  
 |  |                    |  
 |  |        I           |  
 |  |                    |  
 I  I                    |  
 |  |                    |  
 |  |        I           |  
 |  |                    |  
 |  |         I          |  
 |I .--------------------.  
 | /                    /   
 |/                    /    
 *--------------------*     

Positions:
   0 I      0.000000    1.658191    1.236620
   1 I      0.000000    0.618918    6.328523
   2 I      0.000000    3.935300    3.855283
   3 I      0.000000    2.896027    8.947186
   4 I      4.288504    3.935300    1.236620
   5 I      4.288504    2.896027    6.328523
   6 I      4.288504    1.658191    3.855283
   7 I      4.288504    0.618918    8.947186

Unit cell:
           periodic     x           y           z      points  spacing
  1. axis:    yes    8.577007    0.000000    0.000000    40     0.2144
  2. axis:    yes    0.000000    4.554218    0.000000    21     0.2169
  3. axis:    yes    0.000000    0.000000   10.183806    48     0.2122

  Lengths:   8.577007   4.554218  10.183806
  Angles:   90.000000  90.000000  90.000000

Effective grid spacing dv^(1/3) = 0.2145

                     log10-error:    total        iterations:
           time      wfs    density  energy       fermi  poisson  magmom
iter:   1  11:49:24  +0.22          -11.150514    2               -0.0000
iter:   2  11:54:23  -0.59          -11.402075    2               -0.0000
iter:   3  12:00:06  -1.58          -11.441013    1               -0.0000
iter:   4  12:05:09  -2.33          -11.446436    1               -0.0000
iter:   5  12:11:48  -3.18          -11.447848    1               -0.0000
iter:   6  12:17:43  -3.96          -11.448015    1               -0.0000
iter:   7  12:24:23  -4.81          -11.448052    1               -0.0000
iter:   8  12:30:42  -5.71          -11.448056    1               -0.0000
iter:   9  12:37:04  -6.60          -11.448056    1               -0.0000
iter:  10  12:42:08  -7.46          -11.448057    1               -0.0000

Converged after 10 iterations.

Dipole moment: (-0.000000, -0.000000, -0.000000) |e|*Ang

Total magnetic moment: -0.000000
Local magnetic moments:
   0 I  0.000000
   1 I  0.000000
   2 I  0.000000
   3 I  0.000000
   4 I  0.000000
   5 I  0.000000
   6 I  0.000000
   7 I  0.000000

Energy contributions relative to reference atoms: (reference = -1548326.365330)

Kinetic:        +14.932250
Potential:      -13.391693
External:        +0.000000
XC:             -12.956820
Entropy (-ST):   -0.000000
Local:           -0.031794
--------------------------
Free energy:    -11.448057
Extrapolated:   -11.448057

Spin contamination: 0.000000 electrons
Fixed Fermi level: 1.63219

Warning: Showing only first 2 kpts
                      Up                     Down
 Kpt  Band  Eigenvalues  Occupancy  Eigenvalues  Occupancy
  0    26      0.93883    0.02000      0.93883    0.02000
  0    27      1.25056    0.02000      1.25056    0.02000
  0    28      2.08624    0.00000      2.08624    0.00000
  0    29      2.08861    0.00000      2.08861    0.00000

  1    26      0.98755    0.02000      0.98755    0.02000
  1    27      1.19956    0.02000      1.19956    0.02000
  1    28      2.09919    0.00000      2.09919    0.00000
  1    29      2.12159    0.00000      2.12159    0.00000


Timing:                              incl.     excl.
-----------------------------------------------------------
Hamiltonian:                         4.270     0.007   0.0% |
 Atomic:                             2.332     0.003   0.0% |
  XC Correction:                     2.330     2.330   0.0% |
 Calculate atomic Hamiltonians:      0.534     0.534   0.0% |
 Communicate:                        0.000     0.000   0.0% |
 Initialize Hamiltonian:             0.000     0.000   0.0% |
 Poisson:                            0.004     0.004   0.0% |
 XC 3D grid:                         1.392     1.392   0.0% |
LCAO initialization:                59.679     0.046   0.0% |
 LCAO eigensolver:                   2.304     0.035   0.0% |
  Calculate projections:             0.096     0.096   0.0% |
  DenseAtomicCorrection:             0.257     0.257   0.0% |
  Distribute overlap matrix:         0.017     0.017   0.0% |
  Orbital Layouts:                   0.854     0.854   0.0% |
  Potential matrix:                  0.480     0.480   0.0% |
  Sum over cells:                    0.565     0.565   0.0% |
 LCAO to grid:                      55.935    55.935   0.8% |
 Set positions (LCAO WFS):           1.395     0.015   0.0% |
  Basic WFS set positions:           0.001     0.001   0.0% |
  Basis functions set positions:     0.000     0.000   0.0% |
  TCI: Calculate S, T, P:            1.379     1.379   0.0% |
PWDescriptor:                        0.491     0.491   0.0% |
Redistribute:                        0.000     0.000   0.0% |
SCF-cycle:                        6568.139     6.411   0.1% |
 CG:                              3243.032  3141.764  47.3% |------------------|
  CG: orthonormalize:              101.268    35.865   0.5% |
   CG: overlap:                     55.442    55.442   0.8% |
   CG: overlap2:                     9.960     9.960   0.2% |
 Davidson:                        1768.678   664.875  10.0% |---|
  calc. matrices:                 1018.194  1018.194  15.3% |-----|
  diagonalize:                      52.852    52.852   0.8% |
  rotate_psi:                       32.756    32.756   0.5% |
 Density:                          282.355     0.001   0.0% |
  Atomic density matrices:           0.658     0.658   0.0% |
  Mix:                               5.522     5.522   0.1% |
  Multipole moments:                 0.005     0.005   0.0% |
  Pseudo density:                  276.169   275.784   4.2% |-|
   Symmetrize density:               0.385     0.385   0.0% |
 Hamiltonian:                       38.259     0.043   0.0% |
  Atomic:                           21.174     0.024   0.0% |
   XC Correction:                   21.150    21.150   0.3% |
  Calculate atomic Hamiltonians:     4.738     4.738   0.1% |
  Communicate:                       0.000     0.000   0.0% |
  Poisson:                           0.028     0.028   0.0% |
  XC 3D grid:                       12.277    12.277   0.2% |
 Orthonormalize:                    14.855     0.039   0.0% |
  Band Layouts:                      0.062     0.008   0.0% |
   Inverse Cholesky:                 0.054     0.054   0.0% |
  calc_s_matrix:                     0.859     0.859   0.0% |
  projections:                      12.866    12.866   0.2% |
  rotate_psi:                        1.030     1.030   0.0% |
 Residuals:                         37.517    37.517   0.6% |
 Subspace diag:                   1177.033     1.286   0.0% |
  Band Layouts:                     12.454     0.291   0.0% |
   Diagonalize:                     11.940    11.940   0.2% |
   Distribute results:               0.223     0.223   0.0% |
  calc_h_matrix:                  1132.576  1132.576  17.1% |------|
  rotate_psi:                       30.716    30.716   0.5% |
Set symmetry:                        0.036     0.036   0.0% |
Other:                               7.081     7.081   0.1% |
-----------------------------------------------------------
Total:                                      6639.696 100.0%

Date: Sun Feb 14 12:42:10 2021
element =  I
struct =  orthorhombic
kpts =  (8,8,8)
element =  I
configuration =  [Kr] 4d10 5s2 5p5 5d0
valence =  ['5s', '5p', '5d']
occupations =  {'5s': 2, '5p': 5, '5d': 0}
nls =  5p
rNum =  600
lmax =  d
*******************************************
Starting confinement parameter optimization
Adjustable parameters and initial values:
  I_5d.r0 : 5.253439
  I_5p.r0 : 5.253439
  I_5s.r0 : 5.253439
  I_n.r0 : 7.880158
*******************************************

OPT_VAL: 5.25343862982666   5.25343862982666   5.25343862982666   7.88015794473999
VCONF:
  I_5d : PowerConfinement(r0=5.253439, s=2.000000)
  I_5p : PowerConfinement(r0=5.253439, s=2.000000)
  I_5s : PowerConfinement(r0=5.253439, s=2.000000)
  I_n : PowerConfinement(r0=7.880158, s=2.000000)
RESIDUAL: 0.0

OPT_VAL: 5.45343862982666   5.25343862982666   5.25343862982666   7.88015794473999
VCONF:
  I_5d : PowerConfinement(r0=5.453439, s=2.000000)
  I_5p : PowerConfinement(r0=5.253439, s=2.000000)
  I_5s : PowerConfinement(r0=5.253439, s=2.000000)
  I_n : PowerConfinement(r0=7.880158, s=2.000000)
RESIDUAL: 0.0

OPT_VAL: 5.25343862982666   5.45343862982666   5.25343862982666   7.88015794473999
VCONF:
  I_5d : PowerConfinement(r0=5.253439, s=2.000000)
  I_5p : PowerConfinement(r0=5.453439, s=2.000000)
  I_5s : PowerConfinement(r0=5.253439, s=2.000000)
  I_n : PowerConfinement(r0=7.880158, s=2.000000)
RESIDUAL: 0.0

OPT_VAL: 5.25343862982666   5.25343862982666   5.45343862982666   7.88015794473999
VCONF:
  I_5d : PowerConfinement(r0=5.253439, s=2.000000)
  I_5p : PowerConfinement(r0=5.253439, s=2.000000)
  I_5s : PowerConfinement(r0=5.453439, s=2.000000)
  I_n : PowerConfinement(r0=7.880158, s=2.000000)
RESIDUAL: 0.0

OPT_VAL: 5.25343862982666   5.25343862982666   5.25343862982666   8.08015794473999
VCONF:
  I_5d : PowerConfinement(r0=5.253439, s=2.000000)
  I_5p : PowerConfinement(r0=5.253439, s=2.000000)
  I_5s : PowerConfinement(r0=5.253439, s=2.000000)
  I_n : PowerConfinement(r0=8.080158, s=2.000000)
RESIDUAL: 0.0

OPT_VAL: 5.278438629826661   5.25343862982666   5.25343862982666   7.88015794473999
VCONF:
  I_5d : PowerConfinement(r0=5.278439, s=2.000000)
  I_5p : PowerConfinement(r0=5.253439, s=2.000000)
  I_5s : PowerConfinement(r0=5.253439, s=2.000000)
  I_n : PowerConfinement(r0=7.880158, s=2.000000)
RESIDUAL: 0.0

OPT_VAL: 5.25343862982666   5.278438629826661   5.25343862982666   7.88015794473999
VCONF:
  I_5d : PowerConfinement(r0=5.253439, s=2.000000)
  I_5p : PowerConfinement(r0=5.278439, s=2.000000)
  I_5s : PowerConfinement(r0=5.253439, s=2.000000)
  I_n : PowerConfinement(r0=7.880158, s=2.000000)
RESIDUAL: 0.0

OPT_VAL: 5.25343862982666   5.25343862982666   5.278438629826661   7.88015794473999
VCONF:
  I_5d : PowerConfinement(r0=5.253439, s=2.000000)
  I_5p : PowerConfinement(r0=5.253439, s=2.000000)
  I_5s : PowerConfinement(r0=5.278439, s=2.000000)
  I_n : PowerConfinement(r0=7.880158, s=2.000000)
RESIDUAL: 0.0

OPT_VAL: 5.25343862982666   5.25343862982666   5.25343862982666   7.90515794473999
VCONF:
  I_5d : PowerConfinement(r0=5.253439, s=2.000000)
  I_5p : PowerConfinement(r0=5.253439, s=2.000000)
  I_5s : PowerConfinement(r0=5.253439, s=2.000000)
  I_n : PowerConfinement(r0=7.905158, s=2.000000)
RESIDUAL: 0.0

OPT_VAL: 5.25843862982666   5.25343862982666   5.25343862982666   7.88015794473999
VCONF:
  I_5d : PowerConfinement(r0=5.258439, s=2.000000)
  I_5p : PowerConfinement(r0=5.253439, s=2.000000)
  I_5s : PowerConfinement(r0=5.253439, s=2.000000)
  I_n : PowerConfinement(r0=7.880158, s=2.000000)
RESIDUAL: 0.0

OPT_VAL: 5.25343862982666   5.25843862982666   5.25343862982666   7.88015794473999
VCONF:
  I_5d : PowerConfinement(r0=5.253439, s=2.000000)
  I_5p : PowerConfinement(r0=5.258439, s=2.000000)
  I_5s : PowerConfinement(r0=5.253439, s=2.000000)
  I_n : PowerConfinement(r0=7.880158, s=2.000000)
RESIDUAL: 0.0

OPT_VAL: 5.25343862982666   5.25343862982666   5.25843862982666   7.88015794473999
VCONF:
  I_5d : PowerConfinement(r0=5.253439, s=2.000000)
  I_5p : PowerConfinement(r0=5.253439, s=2.000000)
  I_5s : PowerConfinement(r0=5.258439, s=2.000000)
  I_n : PowerConfinement(r0=7.880158, s=2.000000)
RESIDUAL: 0.0

OPT_VAL: 5.25343862982666   5.25343862982666   5.25343862982666   7.88515794473999
VCONF:
  I_5d : PowerConfinement(r0=5.253439, s=2.000000)
  I_5p : PowerConfinement(r0=5.253439, s=2.000000)
  I_5s : PowerConfinement(r0=5.253439, s=2.000000)
  I_n : PowerConfinement(r0=7.885158, s=2.000000)
RESIDUAL: 0.0

*******************************************
Optimization finished after 13 iterations
Adjustable parameters and final values:
  I_5d.r0 : 5.253439
  I_5p.r0 : 5.253439
  I_5s.r0 : 5.253439
  I_n.r0 : 7.880158
*******************************************

VCONF:
  I_5d : PowerConfinement(r0=5.253439, s=2.000000)
  I_5p : PowerConfinement(r0=5.253439, s=2.000000)
  I_5s : PowerConfinement(r0=5.253439, s=2.000000)
  I_n : PowerConfinement(r0=7.880158, s=2.000000)
