element =  Cl
struct =  bcc
nbands =  -4
path =  GHNGP
kpts =  (8,8,8)
lattice constant a =  3.494
lattice constant b =  3.494
lattice constant c =  3.494
alpha angle =  90.0

  ___ ___ ___ _ _ _  
 |   |   |_  | | | | 
 | | | | | . | | | | 
 |__ |  _|___|_____|  1.3.1b1
 |___|_|             

User:   inukai@DESKTOP-12SE80T
Date:   Thu Feb 11 15:40:19 2021
Arch:   x86_64
Pid:    10831
Python: 3.6.9
gpaw:   /usr/lib/python3/dist-packages/gpaw
_gpaw:  /usr/lib/python3/dist-packages/_gpaw.cpython-36m-x86_64-linux-gnu.so
ase:    /home/inukai/hotcent/ase-3.19.3/ase (version 3.19.3)
numpy:  /home/inukai/.local/lib/python3.6/site-packages/numpy (version 1.19.5)
scipy:  /home/inukai/.local/lib/python3.6/site-packages/scipy (version 1.5.4)
units:  Angstrom and eV
cores:  1

Input parameters:
  kpts: [8 8 8]
  maxiter: 1500
  mixer: {backend: pulay,
          beta: 0.01,
          method: separate,
          nmaxold: 11,
          weight: 100.0}
  mode: {ecut: 400.0,
         name: pw}
  occupations: {name: fermi-dirac,
                width: 0.02}
  spinpol: True
  xc: PBE

System changes: positions, numbers, cell, pbc, initial_charges, initial_magmoms 

Initialize ...

Cl-setup:
  name: Chlorine
  id: 726897f06f34e53cf8e33b5885a02604
  Z: 17
  valence: 7
  core: 10
  charge: 0.0
  file: /usr/share/gpaw-setups/Cl.PBE.gz
  cutoffs: 0.79(comp), 1.40(filt), 1.49(core), lmax=2
  valence states:
                energy  radius
    3s(2.00)   -20.689   0.794
    3p(5.00)    -8.594   0.794
    *s           6.523   0.794
    *p          18.617   0.794
    *d           0.000   0.794

  Using partial waves for Cl as LCAO basis

Reference energy: -12554.949396

Spin-polarized calculation.
Magnetic moment:  0.000000

Occupation numbers:
  Fermi-Dirac: width=0.0200 eV

Convergence criteria:
  Maximum total energy change: 0.0005 eV / electron
  Maximum integral of absolute density change: 0.0001 electrons
  Maximum integral of absolute eigenstate change: 4e-08 eV^2
  Maximum number of iterations: 1500

Symmetries present (total): 48

  ( 1  1  1)  ( 1  1  1)  ( 1  1  1)  ( 1  1  1)  ( 1  1  1)  ( 1  1  1)
  ( 0  0 -1)  ( 0  0 -1)  ( 0 -1  0)  ( 0 -1  0)  (-1  0  0)  (-1  0  0)
  ( 0 -1  0)  (-1  0  0)  ( 0  0 -1)  (-1  0  0)  ( 0  0 -1)  ( 0 -1  0)

  ( 1  0  0)  ( 1  0  0)  ( 1  0  0)  ( 1  0  0)  ( 1  0  0)  ( 1  0  0)
  ( 0  1  0)  ( 0  1  0)  ( 0  0  1)  ( 0  0  1)  (-1 -1 -1)  (-1 -1 -1)
  ( 0  0  1)  (-1 -1 -1)  ( 0  1  0)  (-1 -1 -1)  ( 0  1  0)  ( 0  0  1)

  ( 0  1  0)  ( 0  1  0)  ( 0  1  0)  ( 0  1  0)  ( 0  1  0)  ( 0  1  0)
  ( 1  0  0)  ( 1  0  0)  ( 0  0  1)  ( 0  0  1)  (-1 -1 -1)  (-1 -1 -1)
  ( 0  0  1)  (-1 -1 -1)  ( 1  0  0)  (-1 -1 -1)  ( 1  0  0)  ( 0  0  1)

  ( 0  0  1)  ( 0  0  1)  ( 0  0  1)  ( 0  0  1)  ( 0  0  1)  ( 0  0  1)
  ( 1  0  0)  ( 1  0  0)  ( 0  1  0)  ( 0  1  0)  (-1 -1 -1)  (-1 -1 -1)
  ( 0  1  0)  (-1 -1 -1)  ( 1  0  0)  (-1 -1 -1)  ( 1  0  0)  ( 0  1  0)

  ( 0  0 -1)  ( 0  0 -1)  ( 0  0 -1)  ( 0  0 -1)  ( 0  0 -1)  ( 0  0 -1)
  ( 1  1  1)  ( 1  1  1)  ( 0 -1  0)  ( 0 -1  0)  (-1  0  0)  (-1  0  0)
  ( 0 -1  0)  (-1  0  0)  ( 1  1  1)  (-1  0  0)  ( 1  1  1)  ( 0 -1  0)

  ( 0 -1  0)  ( 0 -1  0)  ( 0 -1  0)  ( 0 -1  0)  ( 0 -1  0)  ( 0 -1  0)
  ( 1  1  1)  ( 1  1  1)  ( 0  0 -1)  ( 0  0 -1)  (-1  0  0)  (-1  0  0)
  ( 0  0 -1)  (-1  0  0)  ( 1  1  1)  (-1  0  0)  ( 1  1  1)  ( 0  0 -1)

  (-1  0  0)  (-1  0  0)  (-1  0  0)  (-1  0  0)  (-1  0  0)  (-1  0  0)
  ( 1  1  1)  ( 1  1  1)  ( 0  0 -1)  ( 0  0 -1)  ( 0 -1  0)  ( 0 -1  0)
  ( 0  0 -1)  ( 0 -1  0)  ( 1  1  1)  ( 0 -1  0)  ( 1  1  1)  ( 0  0 -1)

  (-1 -1 -1)  (-1 -1 -1)  (-1 -1 -1)  (-1 -1 -1)  (-1 -1 -1)  (-1 -1 -1)
  ( 1  0  0)  ( 1  0  0)  ( 0  1  0)  ( 0  1  0)  ( 0  0  1)  ( 0  0  1)
  ( 0  1  0)  ( 0  0  1)  ( 1  0  0)  ( 0  0  1)  ( 1  0  0)  ( 0  1  0)

512 k-points: 8 x 8 x 8 Monkhorst-Pack grid
26 k-points in the irreducible part of the Brillouin zone
       k-points in crystal coordinates                weights
   0:     0.06250000    0.06250000   -0.06250000          6/512
   1:     0.18750000   -0.06250000   -0.06250000          8/512
   2:     0.18750000    0.06250000   -0.06250000         24/512
   3:     0.18750000    0.18750000   -0.18750000          6/512
   4:     0.31250000   -0.06250000   -0.06250000         24/512
   5:     0.31250000    0.06250000   -0.18750000         24/512
   6:     0.31250000    0.06250000   -0.06250000         24/512
   7:     0.31250000    0.18750000   -0.18750000         24/512
   8:     0.31250000    0.31250000   -0.31250000          6/512
   9:     0.31250000    0.31250000    0.18750000         12/512
          ...
  25:     0.43750000    0.43750000    0.43750000          8/512

Wave functions: Plane wave expansion
  Cutoff energy: 400.000 eV
  Number of coefficients (min, max): 377, 402
  Using FFTW library
  Eigensolver: None  MatrixOperator buffer_size: default value or 
                              see value of nblock in input file
Diagonalizer layout: Serial LAPACKOrthonormalizer layout: Serial LAPACK 

Davidson(niter=1, smin=None, normalize=True) 

Densities:
  Coarse grid: 12*12*12 grid
  Fine grid: 24*24*24 grid
  Total Charge: 0.000000 

Density mixing:
  Method: separate
  Backend: pulay
  Linear mixing parameter: 0.01
  Mixing with 11 old densities
  Damping of long wave oscillations: 100 

Hamiltonian:
  XC and Coulomb potentials evaluated on a 24*24*24 grid
  Using the PBE Exchange-Correlation functional
 

Memory estimate:
  Process memory now: 926.83 MiB
  Calculator: 4.30 MiB
    Density: 1.30 MiB
      Arrays: 0.46 MiB
      Localized functions: 0.26 MiB
      Mixer: 0.58 MiB
    Hamiltonian: 0.35 MiB
      Arrays: 0.34 MiB
      XC: 0.00 MiB
      Poisson: 0.00 MiB
      vbar: 0.01 MiB
    Wavefunctions: 2.66 MiB
      Arrays psit_nG: 1.28 MiB
      Eigensolver: 0.06 MiB
      Projections: 0.04 MiB
      Projectors: 1.07 MiB
      Overlap op: 0.02 MiB
      PW-descriptor: 0.18 MiB

Total number of cores used: 1

Number of atoms: 1
Number of atomic orbitals: 4
Number of bands in calculation: 4
Bands to converge: occupied states only
Number of valence electrons: 7

... initialized

Initializing position-dependent things.

Density initialized from atomic densities
Creating initial wave functions:
  4 bands from LCAO basis set

                
                
                
       Cl       
                
                
                
                

Positions:
   0 Cl     0.000000    0.000000    0.000000

Unit cell:
           periodic     x           y           z      points  spacing
  1. axis:    yes   -1.747000    1.747000    1.747000    12     0.2059
  2. axis:    yes    1.747000   -1.747000    1.747000    12     0.2059
  3. axis:    yes    1.747000    1.747000   -1.747000    12     0.2059

  Lengths:   3.025893   3.025893   3.025893
  Angles:  109.471221 109.471221 109.471221

Effective grid spacing dv^(1/3) = 0.2311

                     log10-error:    total        iterations:
           time      wfs    density  energy       fermi  poisson  magmom
iter:   1  15:40:21  -0.10   +inf    -0.859259    3               +0.0000
iter:   2  15:40:21  -0.47   +inf    -0.890984    3               +0.0000
iter:   3  15:40:22  -1.23   +inf    -0.898219    2               -0.0000
iter:   4  15:40:22  -1.72  -2.03    -0.900130    2               +0.0000
iter:   5  15:40:23  -2.38  -2.04    -0.900635    2               -0.0000
iter:   6  15:40:24  -2.87  -2.02    -0.900883    3               +0.0000
iter:   7  15:40:24  -2.25  -2.06    -0.902096    5               -0.0000
iter:   8  15:40:25  -3.10  -2.55    -0.902123    3               +0.0000
iter:   9  15:40:26  -4.09  -2.56    -0.902051    3               +0.0000
iter:  10  15:40:26  -4.21  -2.56    -0.901931    3               +0.0000
iter:  11  15:40:27  -4.06  -2.71    -0.901918    3               +0.0000
iter:  12  15:40:28  -4.70  -2.93    -0.901893    3               -0.0000
iter:  13  15:40:28  -5.25  -2.93    -0.901884    3               -0.0000
iter:  14  15:40:29  -4.86  -2.98    -0.901887    3               +0.0000
iter:  15  15:40:30  -4.66  -3.27    -0.901893    3               +0.0000
iter:  16  15:40:30  -5.56  -3.70    -0.901893    2               -0.0003
iter:  17  15:40:31  -5.39  -3.63    -0.901898    3               +0.0000
iter:  18  15:40:32  -5.55  -3.34    -0.901898    2               +0.0001
iter:  19  15:40:32  -4.77  -3.29    -0.901891    3               +0.0006
iter:  20  15:40:33  -5.58  -3.93    -0.901892    2               -0.0000
iter:  21  15:40:34  -6.68  -4.72    -0.901892    2               -0.0000
iter:  22  15:40:34  -7.10  -4.71    -0.901892    2               +0.0000
iter:  23  15:40:35  -6.99  -4.48    -0.901892    2               -0.0001
iter:  24  15:40:36  -7.94  -4.67    -0.901892    2               -0.0001

Converged after 24 iterations.

Dipole moment: (-0.000000, 0.000000, 0.000000) |e|*Ang

Total magnetic moment: -0.000088
Local magnetic moments:
   0 Cl -0.000039

Energy contributions relative to reference atoms: (reference = -12554.949396)

Kinetic:         +0.558353
Potential:       -0.424131
External:        +0.000000
XC:              -1.038288
Entropy (-ST):   -0.005096
Local:           +0.004722
--------------------------
Free energy:     -0.904439
Extrapolated:    -0.901892

Spin contamination: 0.000048 electrons
Fermi level: 2.37384

Warning: Showing only first 2 kpts
                      Up                     Down
 Kpt  Band  Eigenvalues  Occupancy  Eigenvalues  Occupancy
  0     1      2.61120    0.00000      2.61116    0.00000
  0     2      2.84912    0.00000      2.84907    0.00000
  0     3      2.84967    0.00000      2.84962    0.00000

  1     1      1.65923    0.01562      1.65919    0.01562
  1     2      2.79641    0.00000      2.79636    0.00000
  1     3      2.79714    0.00000      2.79709    0.00000


Input parameters:
  convergence: {bands: all}
  eigensolver: {name: cg,
                niter: 5}
  fixdensity: True
  kpts: {npoints: 50,
         path: GHNGP}
  nbands: -4
  symmetry: off

Initialize ...

Cl-setup:
  name: Chlorine
  id: 726897f06f34e53cf8e33b5885a02604
  Z: 17
  valence: 7
  core: 10
  charge: 0.0
  file: /usr/share/gpaw-setups/Cl.PBE.gz
  cutoffs: 0.79(comp), 1.40(filt), 1.49(core), lmax=2
  valence states:
                energy  radius
    3s(2.00)   -20.689   0.794
    3p(5.00)    -8.594   0.794
    *s           6.523   0.794
    *p          18.617   0.794
    *d           0.000   0.794

  Using partial waves for Cl as LCAO basis

Reference energy: -12554.949396

Spin-polarized calculation.
Magnetic moment:  0.000000

Occupation numbers:
  Fixed Fermi level
  Fermi-Dirac: width=0.0200 eV

Convergence criteria:
  Maximum total energy change: 0.0005 eV / electron
  Maximum integral of absolute density change: 0.0001 electrons
  Maximum integral of absolute eigenstate change: 4e-08 eV^2
  Maximum number of iterations: 1500

Symmetries present (total): 1

  ( 1  0  0)
  ( 0  1  0)
  ( 0  0  1)

50 k-points
50 k-points in the irreducible part of the Brillouin zone
       k-points in crystal coordinates                weights
   0:     0.00000000    0.00000000    0.00000000          1/50
   1:     0.03571429   -0.03571429    0.03571429          1/50
   2:     0.07142857   -0.07142857    0.07142857          1/50
   3:     0.10714286   -0.10714286    0.10714286          1/50
   4:     0.14285714   -0.14285714    0.14285714          1/50
   5:     0.17857143   -0.17857143    0.17857143          1/50
   6:     0.21428571   -0.21428571    0.21428571          1/50
   7:     0.25000000   -0.25000000    0.25000000          1/50
   8:     0.28571429   -0.28571429    0.28571429          1/50
   9:     0.32142857   -0.32142857    0.32142857          1/50
          ...
  49:     0.25000000    0.25000000    0.25000000          1/50

Wave functions: Plane wave expansion
  Cutoff energy: 400.000 eV
  Number of coefficients (min, max): 360, 402
  Using FFTW library
  Eigensolver: None  MatrixOperator buffer_size: default value or 
                              see value of nblock in input file
Diagonalizer layout: Serial LAPACKOrthonormalizer layout: Serial LAPACK 

CG(niter=5, rtol=3.0e-01) 

No density mixing

Memory estimate:
  Process memory now: 981.87 MiB
  Calculator: 8.54 MiB
    Density: 1.30 MiB
      Arrays: 0.46 MiB
      Localized functions: 0.26 MiB
      Mixer: 0.58 MiB
    Hamiltonian: 0.35 MiB
      Arrays: 0.34 MiB
      XC: 0.00 MiB
      Poisson: 0.00 MiB
      vbar: 0.01 MiB
    Wavefunctions: 6.89 MiB
      Arrays psit_nG: 4.29 MiB
      Eigensolver: 0.07 MiB
      Projections: 0.14 MiB
      Projectors: 2.06 MiB
      Overlap op: 0.04 MiB
      PW-descriptor: 0.29 MiB

Total number of cores used: 1

Number of atoms: 1
Number of atomic orbitals: 4
Number of bands in calculation: 7
Bands to converge: all
Number of valence electrons: 7

... initialized

Initializing position-dependent things.

Creating initial wave functions:
  4 bands from LCAO basis set
  3 bands from random numbers

                
                
                
       Cl       
                
                
                
                

Positions:
   0 Cl     0.000000    0.000000    0.000000

Unit cell:
           periodic     x           y           z      points  spacing
  1. axis:    yes   -1.747000    1.747000    1.747000    12     0.2059
  2. axis:    yes    1.747000   -1.747000    1.747000    12     0.2059
  3. axis:    yes    1.747000    1.747000   -1.747000    12     0.2059

  Lengths:   3.025893   3.025893   3.025893
  Angles:  109.471221 109.471221 109.471221

Effective grid spacing dv^(1/3) = 0.2311

                     log10-error:    total        iterations:
           time      wfs    density  energy       fermi  poisson  magmom
iter:   1  15:40:42  +3.85            0.782953    33              +0.0017
iter:   2  15:40:45  +2.81            0.730783    33              +0.0002
iter:   3  15:40:48  +1.80            0.726562    33              -0.0001
iter:   4  15:40:51  +0.98            0.725964    33              -0.0001
iter:   5  15:40:54  +0.17            0.725886    34              -0.0001
iter:   6  15:40:58  -0.55            0.725873    33              -0.0001
iter:   7  15:41:01  -1.27            0.725870    32              -0.0001
iter:   8  15:41:04  -1.77            0.725869    33              -0.0001
iter:   9  15:41:07  -2.14            0.725869    30              -0.0001
iter:  10  15:41:10  -1.93            0.725869    31              -0.0001
iter:  11  15:41:12  -2.69            0.725869    33              -0.0001
iter:  12  15:41:15  -2.81            0.725869    33              -0.0001
iter:  13  15:41:17  -3.01            0.725869    33              -0.0001
iter:  14  15:41:18  -3.15            0.725869    33              -0.0001
iter:  15  15:41:19  -3.37            0.725869    33              -0.0001
iter:  16  15:41:21  -3.45            0.725869    33              -0.0001
iter:  17  15:41:22  -3.61            0.725869    33              -0.0001
iter:  18  15:41:23  -3.59            0.725869    33              -0.0001
iter:  19  15:41:24  -3.51            0.725869    33              -0.0001
iter:  20  15:41:25  -3.14            0.725869    33              -0.0001
iter:  21  15:41:26  -3.75            0.725869    33              -0.0001
iter:  22  15:41:27  -3.64            0.725869    33              -0.0001
iter:  23  15:41:28  -3.34            0.725869    33              -0.0001
iter:  24  15:41:30  -4.02            0.725869    33              -0.0001
iter:  25  15:41:31  -3.75            0.725869    33              -0.0001
iter:  26  15:41:32  -4.23            0.725869    33              -0.0001
iter:  27  15:41:33  -4.13            0.725869    33              -0.0001
iter:  28  15:41:34  -4.20            0.725869    33              -0.0001
iter:  29  15:41:34  -4.59            0.725869    33              -0.0001
iter:  30  15:41:36  -4.02            0.725869    33              -0.0001
iter:  31  15:41:36  -4.56            0.725869    33              -0.0001
iter:  32  15:41:37  -4.85            0.725869    33              -0.0001
iter:  33  15:41:38  -4.56            0.725869    33              -0.0001
iter:  34  15:41:39  -4.44            0.725869    33              -0.0001
iter:  35  15:41:40  -4.46            0.725869    33              -0.0001
iter:  36  15:41:41  -4.81            0.725869    33              -0.0001
iter:  37  15:41:42  -4.85            0.725869    33              -0.0001
iter:  38  15:41:43  -4.33            0.725869    33              -0.0001
iter:  39  15:41:44  -5.01            0.725869    33              -0.0001
iter:  40  15:41:45  -4.99            0.725869    33              -0.0001
iter:  41  15:41:46  -4.92            0.725869    33              -0.0001
iter:  42  15:41:47  -4.91            0.725869    33              -0.0001
iter:  43  15:41:48  -4.86            0.725869    33              -0.0001
iter:  44  15:41:49  -4.67            0.725869    33              -0.0001
iter:  45  15:41:50  -4.79            0.725869    33              -0.0001
iter:  46  15:41:50  -5.20            0.725869    33              -0.0001
iter:  47  15:41:51  -4.76            0.725869    33              -0.0001
iter:  48  15:41:52  -4.99            0.725869    33              -0.0001
iter:  49  15:41:53  -4.56            0.725869    33              -0.0001
iter:  50  15:41:54  -4.93            0.725869    33              -0.0001
iter:  51  15:41:55  -4.92            0.725869    33              -0.0001
iter:  52  15:41:56  -5.05            0.725869    33              -0.0001
iter:  53  15:41:57  -4.73            0.725869    33              -0.0001
iter:  54  15:41:58  -4.55            0.725869    33              -0.0001
iter:  55  15:41:58  -4.20            0.725869    33              -0.0001
iter:  56  15:41:59  -4.59            0.725869    33              -0.0001
iter:  57  15:42:00  -4.62            0.725869    33              -0.0001
iter:  58  15:42:01  -5.04            0.725869    33              -0.0001
iter:  59  15:42:02  -4.59            0.725869    33              -0.0001
iter:  60  15:42:03  -5.10            0.725869    33              -0.0001
iter:  61  15:42:04  -4.56            0.725869    33              -0.0001
iter:  62  15:42:04  -5.15            0.725869    33              -0.0001
iter:  63  15:42:05  -5.07            0.725869    33              -0.0001
iter:  64  15:42:06  -4.94            0.725869    33              -0.0001
iter:  65  15:42:07  -4.78            0.725869    33              -0.0001
iter:  66  15:42:08  -5.09            0.725869    33              -0.0001
iter:  67  15:42:09  -5.23            0.725869    33              -0.0001
iter:  68  15:42:10  -5.02            0.725869    33              -0.0001
iter:  69  15:42:11  -4.84            0.725869    33              -0.0001
iter:  70  15:42:12  -5.12            0.725869    33              -0.0001
iter:  71  15:42:12  -5.14            0.725869    33              -0.0001
iter:  72  15:42:13  -4.98            0.725869    33              -0.0001
iter:  73  15:42:14  -4.86            0.725869    33              -0.0001
iter:  74  15:42:15  -4.78            0.725869    33              -0.0001
iter:  75  15:42:16  -4.84            0.725869    33              -0.0001
iter:  76  15:42:17  -4.92            0.725869    33              -0.0001
iter:  77  15:42:18  -4.87            0.725869    33              -0.0001
iter:  78  15:42:18  -5.05            0.725869    33              -0.0001
iter:  79  15:42:19  -5.17            0.725869    33              -0.0001
iter:  80  15:42:20  -4.63            0.725869    33              -0.0001
iter:  81  15:42:21  -4.89            0.725869    33              -0.0001
iter:  82  15:42:22  -5.21            0.725869    33              -0.0001
iter:  83  15:42:23  -5.36            0.725869    33              -0.0001
iter:  84  15:42:24  -4.84            0.725869    33              -0.0001
iter:  85  15:42:25  -4.91            0.725869    33              -0.0001
iter:  86  15:42:25  -5.15            0.725869    33              -0.0001
iter:  87  15:42:26  -5.19            0.725869    33              -0.0001
iter:  88  15:42:27  -5.11            0.725869    33              -0.0001
iter:  89  15:42:28  -4.91            0.725869    33              -0.0001
iter:  90  15:42:29  -5.06            0.725869    33              -0.0001
iter:  91  15:42:30  -5.35            0.725869    33              -0.0001
iter:  92  15:42:31  -4.75            0.725869    33              -0.0001
iter:  93  15:42:31  -4.19            0.725869    33              -0.0001
iter:  94  15:42:32  -4.79            0.725869    33              -0.0001
iter:  95  15:42:33  -5.18            0.725869    33              -0.0001
iter:  96  15:42:34  -5.19            0.725869    33              -0.0001
iter:  97  15:42:35  -4.50            0.725869    33              -0.0001
iter:  98  15:42:36  -4.99            0.725869    33              -0.0001
iter:  99  15:42:37  -4.87            0.725869    33              -0.0001
iter: 100  15:42:37  -4.94            0.725869    33              -0.0001
iter: 101  15:42:38  -5.29            0.725869    33              -0.0001
iter: 102  15:42:39  -4.22            0.725869    33              -0.0001
iter: 103  15:42:40  -4.87            0.725869    33              -0.0001
iter: 104  15:42:41  -5.16            0.725869    33              -0.0001
iter: 105  15:42:42  -5.10            0.725869    33              -0.0001
iter: 106  15:42:43  -5.09            0.725869    33              -0.0001
iter: 107  15:42:43  -5.29            0.725869    33              -0.0001
iter: 108  15:42:44  -5.05            0.725869    33              -0.0001
iter: 109  15:42:45  -4.97            0.725869    33              -0.0001
iter: 110  15:42:46  -5.03            0.725869    33              -0.0001
iter: 111  15:42:47  -5.49            0.725869    33              -0.0001
iter: 112  15:42:48  -5.11            0.725869    33              -0.0001
iter: 113  15:42:48  -5.39            0.725869    33              -0.0001
iter: 114  15:42:49  -5.05            0.725869    33              -0.0001
iter: 115  15:42:50  -4.72            0.725869    33              -0.0001
iter: 116  15:42:51  -4.98            0.725869    33              -0.0001
iter: 117  15:42:52  -5.28            0.725869    33              -0.0001
iter: 118  15:42:53  -5.19            0.725869    33              -0.0001
iter: 119  15:42:54  -5.14            0.725869    33              -0.0001
iter: 120  15:42:54  -4.94            0.725869    33              -0.0001
iter: 121  15:42:55  -4.88            0.725869    33              -0.0001
iter: 122  15:42:56  -5.11            0.725869    33              -0.0001
iter: 123  15:42:57  -5.54            0.725869    33              -0.0001
iter: 124  15:42:58  -5.25            0.725869    33              -0.0001
iter: 125  15:42:59  -5.26            0.725869    33              -0.0001
iter: 126  15:43:00  -5.23            0.725869    33              -0.0001
iter: 127  15:43:00  -5.54            0.725869    33              -0.0001
iter: 128  15:43:01  -5.25            0.725869    33              -0.0001
iter: 129  15:43:02  -5.27            0.725869    33              -0.0001
iter: 130  15:43:03  -5.14            0.725869    33              -0.0001
iter: 131  15:43:04  -5.41            0.725869    33              -0.0001
iter: 132  15:43:05  -5.26            0.725869    33              -0.0001
iter: 133  15:43:06  -5.60            0.725869    33              -0.0001
iter: 134  15:43:06  -5.29            0.725869    33              -0.0001
iter: 135  15:43:07  -5.57            0.725869    33              -0.0001
iter: 136  15:43:08  -5.38            0.725869    33              -0.0001
iter: 137  15:43:09  -5.60            0.725869    33              -0.0001
iter: 138  15:43:10  -5.13            0.725869    33              -0.0001
iter: 139  15:43:11  -5.45            0.725869    33              -0.0001
iter: 140  15:43:12  -5.41            0.725869    33              -0.0001
iter: 141  15:43:12  -5.37            0.725869    33              -0.0001
iter: 142  15:43:13  -5.45            0.725869    33              -0.0001
iter: 143  15:43:14  -5.62            0.725869    33              -0.0001
iter: 144  15:43:15  -5.45            0.725869    33              -0.0001
iter: 145  15:43:16  -5.48            0.725869    33              -0.0001
iter: 146  15:43:17  -5.35            0.725869    33              -0.0001
iter: 147  15:43:17  -5.64            0.725869    33              -0.0001
iter: 148  15:43:18  -5.40            0.725869    33              -0.0001
iter: 149  15:43:19  -5.64            0.725869    33              -0.0001
iter: 150  15:43:20  -5.44            0.725869    33              -0.0001
iter: 151  15:43:21  -5.66            0.725869    33              -0.0001
iter: 152  15:43:22  -5.47            0.725869    33              -0.0001
iter: 153  15:43:23  -5.59            0.725869    33              -0.0001
iter: 154  15:43:23  -5.49            0.725869    33              -0.0001
iter: 155  15:43:24  -5.37            0.725869    33              -0.0001
iter: 156  15:43:25  -5.49            0.725869    33              -0.0001
iter: 157  15:43:26  -5.66            0.725869    33              -0.0001
iter: 158  15:43:27  -5.51            0.725869    33              -0.0001
iter: 159  15:43:28  -5.67            0.725869    33              -0.0001
iter: 160  15:43:29  -5.48            0.725869    33              -0.0001
iter: 161  15:43:29  -5.52            0.725869    33              -0.0001
iter: 162  15:43:30  -5.46            0.725869    33              -0.0001
iter: 163  15:43:31  -5.70            0.725869    33              -0.0001
iter: 164  15:43:32  -5.51            0.725869    33              -0.0001
iter: 165  15:43:33  -5.72            0.725869    33              -0.0001
iter: 166  15:43:34  -5.53            0.725869    33              -0.0001
iter: 167  15:43:34  -5.69            0.725869    33              -0.0001
iter: 168  15:43:35  -5.51            0.725869    33              -0.0001
iter: 169  15:43:36  -5.72            0.725869    33              -0.0001
iter: 170  15:43:37  -5.51            0.725869    33              -0.0001
iter: 171  15:43:38  -5.70            0.725869    33              -0.0001
iter: 172  15:43:39  -5.52            0.725869    33              -0.0001
iter: 173  15:43:40  -5.56            0.725869    33              -0.0001
iter: 174  15:43:40  -5.54            0.725869    33              -0.0001
iter: 175  15:43:41  -5.73            0.725869    33              -0.0001
iter: 176  15:43:42  -5.56            0.725869    33              -0.0001
iter: 177  15:43:43  -5.75            0.725869    33              -0.0001
iter: 178  15:43:44  -5.57            0.725869    33              -0.0001
iter: 179  15:43:45  -5.72            0.725869    33              -0.0001
iter: 180  15:43:45  -5.55            0.725869    33              -0.0001
iter: 181  15:43:46  -5.57            0.725869    33              -0.0001
iter: 182  15:43:47  -5.58            0.725869    33              -0.0001
iter: 183  15:43:48  -5.76            0.725869    33              -0.0001
iter: 184  15:43:49  -5.57            0.725869    33              -0.0001
iter: 185  15:43:50  -5.78            0.725869    33              -0.0001
iter: 186  15:43:51  -5.59            0.725869    33              -0.0001
iter: 187  15:43:51  -5.78            0.725869    33              -0.0001
iter: 188  15:43:52  -5.57            0.725869    33              -0.0001
iter: 189  15:43:53  -5.80            0.725869    33              -0.0001
iter: 190  15:43:54  -5.54            0.725869    33              -0.0001
iter: 191  15:43:55  -5.79            0.725869    33              -0.0001
iter: 192  15:43:56  -5.59            0.725869    33              -0.0001
iter: 193  15:43:57  -5.81            0.725869    33              -0.0001
iter: 194  15:43:57  -5.58            0.725869    33              -0.0001
iter: 195  15:43:58  -5.80            0.725869    33              -0.0001
iter: 196  15:43:59  -5.56            0.725869    33              -0.0001
iter: 197  15:44:00  -5.82            0.725869    33              -0.0001
iter: 198  15:44:01  -5.64            0.725869    33              -0.0001
iter: 199  15:44:02  -5.75            0.725869    33              -0.0001
iter: 200  15:44:03  -5.64            0.725869    33              -0.0001
iter: 201  15:44:03  -5.84            0.725869    33              -0.0001
iter: 202  15:44:04  -5.65            0.725869    33              -0.0001
iter: 203  15:44:05  -5.81            0.725869    33              -0.0001
iter: 204  15:44:06  -5.65            0.725869    33              -0.0001
iter: 205  15:44:07  -5.86            0.725869    33              -0.0001
iter: 206  15:44:08  -5.64            0.725869    33              -0.0001
iter: 207  15:44:08  -5.85            0.725869    33              -0.0001
iter: 208  15:44:09  -5.57            0.725869    33              -0.0001
iter: 209  15:44:10  -5.88            0.725869    33              -0.0001
iter: 210  15:44:11  -5.67            0.725869    33              -0.0001
iter: 211  15:44:12  -5.87            0.725869    33              -0.0001
iter: 212  15:44:13  -5.65            0.725869    33              -0.0001
iter: 213  15:44:14  -5.88            0.725869    33              -0.0001
iter: 214  15:44:14  -5.58            0.725869    33              -0.0001
iter: 215  15:44:15  -5.89            0.725869    33              -0.0001
iter: 216  15:44:16  -5.67            0.725869    33              -0.0001
iter: 217  15:44:17  -5.92            0.725869    33              -0.0001
iter: 218  15:44:18  -5.71            0.725869    33              -0.0001
iter: 219  15:44:19  -5.90            0.725869    33              -0.0001
iter: 220  15:44:19  -5.71            0.725869    33              -0.0001
iter: 221  15:44:20  -5.92            0.725869    33              -0.0001
iter: 222  15:44:21  -5.73            0.725869    33              -0.0001
iter: 223  15:44:22  -5.83            0.725869    33              -0.0001
iter: 224  15:44:23  -5.73            0.725869    33              -0.0001
iter: 225  15:44:24  -5.95            0.725869    33              -0.0001
iter: 226  15:44:25  -5.71            0.725869    33              -0.0001
iter: 227  15:44:25  -5.94            0.725869    33              -0.0001
iter: 228  15:44:26  -5.74            0.725869    33              -0.0001
iter: 229  15:44:27  -5.98            0.725869    33              -0.0001
iter: 230  15:44:28  -5.76            0.725869    33              -0.0001
iter: 231  15:44:29  -5.95            0.725869    33              -0.0001
iter: 232  15:44:30  -5.74            0.725869    33              -0.0001
iter: 233  15:44:31  -5.84            0.725869    33              -0.0001
iter: 234  15:44:31  -5.77            0.725869    33              -0.0001
iter: 235  15:44:32  -5.98            0.725869    33              -0.0001
iter: 236  15:44:33  -5.70            0.725869    33              -0.0001
iter: 237  15:44:34  -6.00            0.725869    33              -0.0001
iter: 238  15:44:35  -5.78            0.725869    33              -0.0001
iter: 239  15:44:36  -6.00            0.725869    33              -0.0001
iter: 240  15:44:36  -5.77            0.725869    33              -0.0001
iter: 241  15:44:37  -5.91            0.725869    33              -0.0001
iter: 242  15:44:38  -5.73            0.725869    33              -0.0001
iter: 243  15:44:39  -6.02            0.725869    33              -0.0001
iter: 244  15:44:40  -5.81            0.725869    33              -0.0001
iter: 245  15:44:41  -6.05            0.725869    33              -0.0001
iter: 246  15:44:41  -5.83            0.725869    33              -0.0001
iter: 247  15:44:42  -5.96            0.725869    33              -0.0001
iter: 248  15:44:43  -5.82            0.725869    33              -0.0001
iter: 249  15:44:44  -6.07            0.725869    33              -0.0001
iter: 250  15:44:45  -5.81            0.725869    33              -0.0001
iter: 251  15:44:46  -6.01            0.725869    33              -0.0001
iter: 252  15:44:46  -5.85            0.725869    33              -0.0001
iter: 253  15:44:47  -6.09            0.725869    33              -0.0001
iter: 254  15:44:48  -5.87            0.725869    33              -0.0001
iter: 255  15:44:49  -6.08            0.725869    33              -0.0001
iter: 256  15:44:50  -5.84            0.725869    33              -0.0001
iter: 257  15:44:51  -6.11            0.725869    33              -0.0001
iter: 258  15:44:52  -5.83            0.725869    33              -0.0001
iter: 259  15:44:52  -6.10            0.725869    33              -0.0001
iter: 260  15:44:53  -5.87            0.725869    33              -0.0001
iter: 261  15:44:54  -6.06            0.725869    33              -0.0001
iter: 262  15:44:55  -5.76            0.725869    33              -0.0001
iter: 263  15:44:56  -6.08            0.725869    33              -0.0001
iter: 264  15:44:57  -5.88            0.725869    33              -0.0001
iter: 265  15:44:57  -6.16            0.725869    33              -0.0001
iter: 266  15:44:58  -5.90            0.725869    33              -0.0001
iter: 267  15:44:59  -5.94            0.725869    33              -0.0001
iter: 268  15:45:00  -5.84            0.725869    33              -0.0001
iter: 269  15:45:01  -6.18            0.725869    33              -0.0001
iter: 270  15:45:02  -5.95            0.725869    33              -0.0001
iter: 271  15:45:02  -6.15            0.725869    33              -0.0001
iter: 272  15:45:03  -5.94            0.725869    33              -0.0001
iter: 273  15:45:04  -6.20            0.725869    33              -0.0001
iter: 274  15:45:05  -5.96            0.725869    33              -0.0001
iter: 275  15:45:06  -6.18            0.725869    33              -0.0001
iter: 276  15:45:07  -5.89            0.725869    33              -0.0001
iter: 277  15:45:07  -6.22            0.725869    33              -0.0001
iter: 278  15:45:08  -5.98            0.725869    33              -0.0001
iter: 279  15:45:09  -6.21            0.725869    33              -0.0001
iter: 280  15:45:10  -5.97            0.725869    33              -0.0001
iter: 281  15:45:11  -6.24            0.725869    33              -0.0001
iter: 282  15:45:12  -5.99            0.725869    33              -0.0001
iter: 283  15:45:12  -6.22            0.725869    33              -0.0001
iter: 284  15:45:13  -5.97            0.725869    33              -0.0001
iter: 285  15:45:14  -6.15            0.725869    33              -0.0001
iter: 286  15:45:15  -6.00            0.725869    33              -0.0001
iter: 287  15:45:16  -6.24            0.725869    33              -0.0001
iter: 288  15:45:17  -5.99            0.725869    33              -0.0001
iter: 289  15:45:17  -6.21            0.725869    33              -0.0001
iter: 290  15:45:18  -6.02            0.725869    33              -0.0001
iter: 291  15:45:19  -6.27            0.725869    33              -0.0001
iter: 292  15:45:20  -5.99            0.725869    33              -0.0001
iter: 293  15:45:21  -6.01            0.725869    33              -0.0001
iter: 294  15:45:22  -6.04            0.725869    33              -0.0001
iter: 295  15:45:23  -6.25            0.725869    33              -0.0001
iter: 296  15:45:23  -5.96            0.725869    33              -0.0001
iter: 297  15:45:24  -6.29            0.725869    33              -0.0001
iter: 298  15:45:25  -6.05            0.725869    33              -0.0001
iter: 299  15:45:26  -6.26            0.725869    33              -0.0001
iter: 300  15:45:27  -5.89            0.725869    33              -0.0001
iter: 301  15:45:28  -6.32            0.725869    33              -0.0001
iter: 302  15:45:28  -5.99            0.725869    33              -0.0001
iter: 303  15:45:29  -6.27            0.725869    33              -0.0001
iter: 304  15:45:30  -5.63            0.725869    33              -0.0001
iter: 305  15:45:31  -6.38            0.725869    33              -0.0001
iter: 306  15:45:32  -6.02            0.725869    33              -0.0001
iter: 307  15:45:33  -6.32            0.725869    33              -0.0001
iter: 308  15:45:33  -6.07            0.725869    33              -0.0001
iter: 309  15:45:34  -6.38            0.725869    33              -0.0001
iter: 310  15:45:35  -6.04            0.725869    33              -0.0001
iter: 311  15:45:36  -6.33            0.725869    33              -0.0001
iter: 312  15:45:37  -6.09            0.725869    33              -0.0001
iter: 313  15:45:38  -6.41            0.725869    33              -0.0001
iter: 314  15:45:39  -6.09            0.725869    33              -0.0001
iter: 315  15:45:39  -6.31            0.725869    33              -0.0001
iter: 316  15:45:40  -6.08            0.725869    33              -0.0001
iter: 317  15:45:41  -6.40            0.725869    33              -0.0001
iter: 318  15:45:42  -6.11            0.725869    33              -0.0001
iter: 319  15:45:43  -6.07            0.725869    33              -0.0001
iter: 320  15:45:44  -6.04            0.725869    33              -0.0001
iter: 321  15:45:44  -6.07            0.725869    33              -0.0001
iter: 322  15:45:45  -6.13            0.725869    33              -0.0001
iter: 323  15:45:46  -6.32            0.725869    33              -0.0001
iter: 324  15:45:47  -6.15            0.725869    33              -0.0001
iter: 325  15:45:48  -6.09            0.725869    33              -0.0001
iter: 326  15:45:49  -6.20            0.725869    33              -0.0001
iter: 327  15:45:49  -6.36            0.725869    33              -0.0001
iter: 328  15:45:50  -6.18            0.725869    33              -0.0001
iter: 329  15:45:51  -5.84            0.725869    33              -0.0001
iter: 330  15:45:52  -6.21            0.725869    33              -0.0001
iter: 331  15:45:53  -5.99            0.725869    33              -0.0001
iter: 332  15:45:54  -6.19            0.725869    33              -0.0001
iter: 333  15:45:54  -5.60            0.725869    33              -0.0001
iter: 334  15:45:55  -6.10            0.725869    33              -0.0001
iter: 335  15:45:56  -6.34            0.725869    33              -0.0001
iter: 336  15:45:57  -6.19            0.725869    33              -0.0001
iter: 337  15:45:58  -6.46            0.725869    33              -0.0001
iter: 338  15:45:59  -6.23            0.725869    33              -0.0001
iter: 339  15:45:59  -6.36            0.725869    33              -0.0001
iter: 340  15:46:00  -6.21            0.725869    33              -0.0001
iter: 341  15:46:01  -6.45            0.725869    33              -0.0001
iter: 342  15:46:02  -6.25            0.725869    33              -0.0001
iter: 343  15:46:03  -6.38            0.725869    33              -0.0001
iter: 344  15:46:04  -6.24            0.725869    33              -0.0001
iter: 345  15:46:04  -6.45            0.725869    33              -0.0001
iter: 346  15:46:05  -6.28            0.725869    33              -0.0001
iter: 347  15:46:06  -6.49            0.725869    33              -0.0001
iter: 348  15:46:07  -6.27            0.725869    33              -0.0001
iter: 349  15:46:08  -6.46            0.725869    33              -0.0001
iter: 350  15:46:09  -6.31            0.725869    33              -0.0001
iter: 351  15:46:09  -6.42            0.725869    33              -0.0001
iter: 352  15:46:10  -6.28            0.725869    33              -0.0001
iter: 353  15:46:11  -6.41            0.725869    33              -0.0001
iter: 354  15:46:12  -6.32            0.725869    33              -0.0001
iter: 355  15:46:13  -6.43            0.725869    33              -0.0001
iter: 356  15:46:14  -6.29            0.725869    33              -0.0001
iter: 357  15:46:15  -6.63            0.725869    33              -0.0001
iter: 358  15:46:15  -6.29            0.725869    33              -0.0001
iter: 359  15:46:16  -6.46            0.725869    33              -0.0001
iter: 360  15:46:17  -6.29            0.725869    33              -0.0001
iter: 361  15:46:18  -6.66            0.725869    33              -0.0001
iter: 362  15:46:19  -6.29            0.725869    33              -0.0001
iter: 363  15:46:20  -6.58            0.725869    33              -0.0001
iter: 364  15:46:20  -6.29            0.725869    33              -0.0001
iter: 365  15:46:21  -6.25            0.725869    33              -0.0001
iter: 366  15:46:22  -6.34            0.725869    33              -0.0001
iter: 367  15:46:23  -6.63            0.725869    33              -0.0001
iter: 368  15:46:24  -6.31            0.725869    33              -0.0001
iter: 369  15:46:25  -6.68            0.725869    33              -0.0001
iter: 370  15:46:26  -6.27            0.725869    33              -0.0001
iter: 371  15:46:26  -6.65            0.725869    33              -0.0001
iter: 372  15:46:27  -6.33            0.725869    33              -0.0001
iter: 373  15:46:28  -6.71            0.725869    33              -0.0001
iter: 374  15:46:29  -6.03            0.725869    33              -0.0001
iter: 375  15:46:30  -6.67            0.725869    33              -0.0001
iter: 376  15:46:31  -6.34            0.725869    33              -0.0001
iter: 377  15:46:31  -6.72            0.725869    33              -0.0001
iter: 378  15:46:32  -6.40            0.725869    33              -0.0001
iter: 379  15:46:33  -6.67            0.725869    33              -0.0001
iter: 380  15:46:34  -6.38            0.725869    33              -0.0001
iter: 381  15:46:35  -6.74            0.725869    33              -0.0001
iter: 382  15:46:36  -6.40            0.725869    33              -0.0001
iter: 383  15:46:36  -6.69            0.725869    33              -0.0001
iter: 384  15:46:37  -6.35            0.725869    33              -0.0001
iter: 385  15:46:38  -6.76            0.725869    33              -0.0001
iter: 386  15:46:39  -6.40            0.725869    33              -0.0001
iter: 387  15:46:40  -6.71            0.725869    33              -0.0001
iter: 388  15:46:41  -6.38            0.725869    33              -0.0001
iter: 389  15:46:42  -6.78            0.725869    33              -0.0001
iter: 390  15:46:42  -6.42            0.725869    33              -0.0001
iter: 391  15:46:43  -6.73            0.725869    33              -0.0001
iter: 392  15:46:44  -6.41            0.725869    33              -0.0001
iter: 393  15:46:45  -6.80            0.725869    33              -0.0001
iter: 394  15:46:46  -6.42            0.725869    33              -0.0001
iter: 395  15:46:47  -6.75            0.725869    33              -0.0001
iter: 396  15:46:47  -6.40            0.725869    33              -0.0001
iter: 397  15:46:48  -6.77            0.725869    33              -0.0001
iter: 398  15:46:49  -6.48            0.725869    33              -0.0001
iter: 399  15:46:50  -6.71            0.725869    33              -0.0001
iter: 400  15:46:51  -6.41            0.725869    33              -0.0001
iter: 401  15:46:52  -6.82            0.725869    33              -0.0001
iter: 402  15:46:52  -6.33            0.725869    33              -0.0001
iter: 403  15:46:53  -6.59            0.725869    33              -0.0001
iter: 404  15:46:54  -6.46            0.725869    33              -0.0001
iter: 405  15:46:55  -6.85            0.725869    33              -0.0001
iter: 406  15:46:56  -6.50            0.725869    33              -0.0001
iter: 407  15:46:57  -6.79            0.725869    33              -0.0001
iter: 408  15:46:57  -6.47            0.725869    33              -0.0001
iter: 409  15:46:58  -6.88            0.725869    33              -0.0001
iter: 410  15:46:59  -6.47            0.725869    33              -0.0001
iter: 411  15:47:00  -6.81            0.725869    33              -0.0001
iter: 412  15:47:01  -6.38            0.725869    33              -0.0001
iter: 413  15:47:01  -6.90            0.725869    33              -0.0001
iter: 414  15:47:02  -6.50            0.725869    33              -0.0001
iter: 415  15:47:03  -6.84            0.725869    33              -0.0001
iter: 416  15:47:04  -6.48            0.725869    33              -0.0001
iter: 417  15:47:05  -6.90            0.725869    33              -0.0001
iter: 418  15:47:06  -6.45            0.725869    33              -0.0001
iter: 419  15:47:06  -6.85            0.725869    33              -0.0001
iter: 420  15:47:07  -6.51            0.725869    33              -0.0001
iter: 421  15:47:08  -6.93            0.725869    33              -0.0001
iter: 422  15:47:09  -6.56            0.725869    33              -0.0001
iter: 423  15:47:10  -6.86            0.725869    33              -0.0001
iter: 424  15:47:10  -6.54            0.725869    33              -0.0001
iter: 425  15:47:11  -6.94            0.725869    33              -0.0001
iter: 426  15:47:12  -6.58            0.725869    33              -0.0001
iter: 427  15:47:13  -6.88            0.725869    33              -0.0001
iter: 428  15:47:14  -6.54            0.725869    33              -0.0001
iter: 429  15:47:15  -6.93            0.725869    33              -0.0001
iter: 430  15:47:15  -6.51            0.725869    33              -0.0001
iter: 431  15:47:16  -6.90            0.725869    33              -0.0001
iter: 432  15:47:17  -6.54            0.725869    33              -0.0001
iter: 433  15:47:18  -6.97            0.725869    33              -0.0001
iter: 434  15:47:19  -6.45            0.725869    33              -0.0001
iter: 435  15:47:20  -6.91            0.725869    33              -0.0001
iter: 436  15:47:20  -6.54            0.725869    33              -0.0001
iter: 437  15:47:21  -7.00            0.725869    33              -0.0001
iter: 438  15:47:22  -6.57            0.725869    33              -0.0001
iter: 439  15:47:23  -6.94            0.725869    33              -0.0001
iter: 440  15:47:24  -6.55            0.725869    33              -0.0001
iter: 441  15:47:24  -7.01            0.725869    33              -0.0001
iter: 442  15:47:25  -6.60            0.725869    33              -0.0001
iter: 443  15:47:26  -6.82            0.725869    33              -0.0001
iter: 444  15:47:27  -6.59            0.725869    33              -0.0001
iter: 445  15:47:28  -7.01            0.725869    33              -0.0001
iter: 446  15:47:29  -6.53            0.725869    33              -0.0001
iter: 447  15:47:29  -6.96            0.725869    33              -0.0001
iter: 448  15:47:30  -6.61            0.725869    33              -0.0001
iter: 449  15:47:31  -6.74            0.725869    33              -0.0001
iter: 450  15:47:32  -6.51            0.725869    33              -0.0001
iter: 451  15:47:33  -6.98            0.725869    33              -0.0001
iter: 452  15:47:33  -6.61            0.725869    33              -0.0001
iter: 453  15:47:34  -7.07            0.725869    33              -0.0001
iter: 454  15:47:35  -6.65            0.725869    33              -0.0001
iter: 455  15:47:36  -6.99            0.725869    33              -0.0001
iter: 456  15:47:37  -6.62            0.725869    33              -0.0001
iter: 457  15:47:37  -7.09            0.725869    33              -0.0001
iter: 458  15:47:38  -6.65            0.725869    33              -0.0001
iter: 459  15:47:39  -7.00            0.725869    33              -0.0001
iter: 460  15:47:40  -6.62            0.725869    33              -0.0001
iter: 461  15:47:41  -7.10            0.725869    33              -0.0001
iter: 462  15:47:41  -6.65            0.725869    33              -0.0001
iter: 463  15:47:42  -7.03            0.725869    33              -0.0001
iter: 464  15:47:43  -6.63            0.725869    33              -0.0001
iter: 465  15:47:44  -7.12            0.725869    33              -0.0001
iter: 466  15:47:45  -6.67            0.725869    33              -0.0001
iter: 467  15:47:45  -7.02            0.725869    33              -0.0001
iter: 468  15:47:46  -6.65            0.725869    33              -0.0001
iter: 469  15:47:47  -7.12            0.725869    33              -0.0001
iter: 470  15:47:48  -6.70            0.725869    33              -0.0001
iter: 471  15:47:49  -7.05            0.725869    33              -0.0001
iter: 472  15:47:49  -6.68            0.725869    33              -0.0001
iter: 473  15:47:50  -7.12            0.725869    33              -0.0001
iter: 474  15:47:51  -6.72            0.725869    33              -0.0001
iter: 475  15:47:52  -7.06            0.725869    33              -0.0001
iter: 476  15:47:53  -6.70            0.725869    33              -0.0001
iter: 477  15:47:53  -7.15            0.725869    33              -0.0001
iter: 478  15:47:54  -6.74            0.725869    33              -0.0001
iter: 479  15:47:55  -7.08            0.725869    33              -0.0001
iter: 480  15:47:56  -6.70            0.725869    33              -0.0001
iter: 481  15:47:57  -7.17            0.725869    33              -0.0001
iter: 482  15:47:57  -6.74            0.725869    33              -0.0001
iter: 483  15:47:58  -7.10            0.725869    33              -0.0001
iter: 484  15:47:59  -6.70            0.725869    33              -0.0001
iter: 485  15:48:00  -7.19            0.725869    33              -0.0001
iter: 486  15:48:01  -6.73            0.725869    33              -0.0001
iter: 487  15:48:01  -7.11            0.725869    33              -0.0001
iter: 488  15:48:02  -6.71            0.725869    33              -0.0001
iter: 489  15:48:03  -7.20            0.725869    33              -0.0001
iter: 490  15:48:04  -6.75            0.725869    33              -0.0001
iter: 491  15:48:05  -7.03            0.725869    33              -0.0001
iter: 492  15:48:05  -6.73            0.725869    33              -0.0001
iter: 493  15:48:06  -7.15            0.725869    33              -0.0001
iter: 494  15:48:07  -6.77            0.725869    33              -0.0001
iter: 495  15:48:08  -7.13            0.725869    33              -0.0001
iter: 496  15:48:09  -6.75            0.725869    33              -0.0001
iter: 497  15:48:09  -7.22            0.725869    33              -0.0001
iter: 498  15:48:10  -6.80            0.725869    33              -0.0001
iter: 499  15:48:11  -7.14            0.725869    33              -0.0001
iter: 500  15:48:12  -6.78            0.725869    33              -0.0001
iter: 501  15:48:13  -7.14            0.725869    33              -0.0001
iter: 502  15:48:13  -6.83            0.725869    33              -0.0001
iter: 503  15:48:14  -7.10            0.725869    33              -0.0001
iter: 504  15:48:15  -6.79            0.725869    33              -0.0001
iter: 505  15:48:16  -7.25            0.725869    33              -0.0001
iter: 506  15:48:17  -6.82            0.725869    33              -0.0001
iter: 507  15:48:17  -7.17            0.725869    33              -0.0001
iter: 508  15:48:18  -6.79            0.725869    33              -0.0001
iter: 509  15:48:19  -7.27            0.725869    33              -0.0001
iter: 510  15:48:20  -6.82            0.725869    33              -0.0001
iter: 511  15:48:20  -7.10            0.725869    33              -0.0001
iter: 512  15:48:21  -6.57            0.725869    33              -0.0001
iter: 513  15:48:22  -7.23            0.725869    33              -0.0001
iter: 514  15:48:23  -6.83            0.725869    33              -0.0001
iter: 515  15:48:24  -7.20            0.725869    33              -0.0001
iter: 516  15:48:24  -6.80            0.725869    33              -0.0001
iter: 517  15:48:25  -7.29            0.725869    33              -0.0001
iter: 518  15:48:26  -6.85            0.725869    33              -0.0001
iter: 519  15:48:27  -7.21            0.725869    33              -0.0001
iter: 520  15:48:28  -6.83            0.725869    33              -0.0001
iter: 521  15:48:28  -7.30            0.725869    33              -0.0001
iter: 522  15:48:29  -6.88            0.725869    33              -0.0001
iter: 523  15:48:30  -7.22            0.725869    33              -0.0001
iter: 524  15:48:31  -6.86            0.725869    33              -0.0001
iter: 525  15:48:31  -7.31            0.725869    33              -0.0001
iter: 526  15:48:32  -6.90            0.725869    33              -0.0001
iter: 527  15:48:33  -7.23            0.725869    33              -0.0001
iter: 528  15:48:34  -6.87            0.725869    33              -0.0001
iter: 529  15:48:34  -7.33            0.725869    33              -0.0001
iter: 530  15:48:35  -6.91            0.725869    33              -0.0001
iter: 531  15:48:36  -7.25            0.725869    33              -0.0001
iter: 532  15:48:37  -6.87            0.725869    33              -0.0001
iter: 533  15:48:38  -7.29            0.725869    33              -0.0001
iter: 534  15:48:38  -6.91            0.725869    33              -0.0001
iter: 535  15:48:39  -7.15            0.725869    33              -0.0001
iter: 536  15:48:40  -6.87            0.725869    33              -0.0001
iter: 537  15:48:41  -7.36            0.725869    33              -0.0001
iter: 538  15:48:41  -6.90            0.725869    33              -0.0001
iter: 539  15:48:42  -7.28            0.725869    33              -0.0001
iter: 540  15:48:43  -6.88            0.725869    33              -0.0001
iter: 541  15:48:44  -7.37            0.725869    33              -0.0001
iter: 542  15:48:45  -6.92            0.725869    33              -0.0001
iter: 543  15:48:45  -7.29            0.725869    33              -0.0001
iter: 544  15:48:46  -6.90            0.725869    33              -0.0001
iter: 545  15:48:47  -7.38            0.725869    33              -0.0001
iter: 546  15:48:48  -6.95            0.725869    33              -0.0001
iter: 547  15:48:48  -7.29            0.725869    33              -0.0001
iter: 548  15:48:49  -6.93            0.725869    33              -0.0001
iter: 549  15:48:50  -7.38            0.725869    33              -0.0001
iter: 550  15:48:51  -6.98            0.725869    33              -0.0001
iter: 551  15:48:52  -7.30            0.725869    33              -0.0001
iter: 552  15:48:52  -6.95            0.725869    33              -0.0001
iter: 553  15:48:53  -7.40            0.725869    33              -0.0001

Converged after 553 iterations.

Dipole moment: (-0.000000, 0.000000, 0.000000) |e|*Ang

Total magnetic moment: -0.000109
Local magnetic moments:
   0 Cl -0.000039

Energy contributions relative to reference atoms: (reference = -12554.949396)

Kinetic:         +2.186640
Potential:       -0.424299
External:        +0.000000
XC:              -1.038377
Entropy (-ST):   -0.005783
Local:           +0.004796
--------------------------
Free energy:     +0.722978
Extrapolated:    +0.725869

Spin contamination: 0.000048 electrons
Fixed Fermi level: 2.37384

Warning: Showing only first 2 kpts
                      Up                     Down
 Kpt  Band  Eigenvalues  Occupancy  Eigenvalues  Occupancy
  0     1      2.98085    0.00001      2.98080    0.00001
  0     2      2.98142    0.00001      2.98137    0.00001
  0     3      2.98142    0.00001      2.98137    0.00001
  0     4     12.09721    0.00000     12.09728    0.00000

  1     1      2.85433    0.00355      2.85429    0.00356
  1     2      2.93758    0.00007      2.93753    0.00007
  1     3      2.93802    0.00007      2.93797    0.00007
  1     4     12.25791    0.00000     12.25799    0.00000


Timing:                              incl.     excl.
-----------------------------------------------------------
Hamiltonian:                         0.511     0.001   0.0% |
 Atomic:                             0.398     0.002   0.0% |
  XC Correction:                     0.396     0.396   0.1% |
 Calculate atomic Hamiltonians:      0.006     0.006   0.0% |
 Communicate:                        0.000     0.000   0.0% |
 Initialize Hamiltonian:             0.000     0.000   0.0% |
 Poisson:                            0.000     0.000   0.0% |
 XC 3D grid:                         0.106     0.106   0.0% |
LCAO initialization:                 1.557     0.054   0.0% |
 LCAO eigensolver:                   0.875     0.014   0.0% |
  Calculate projections:             0.004     0.004   0.0% |
  DenseAtomicCorrection:             0.026     0.026   0.0% |
  Distribute overlap matrix:         0.006     0.006   0.0% |
  Orbital Layouts:                   0.028     0.028   0.0% |
  Potential matrix:                  0.115     0.115   0.0% |
  Sum over cells:                    0.682     0.682   0.1% |
 LCAO to grid:                       0.352     0.352   0.1% |
 Set positions (LCAO WFS):           0.277     0.001   0.0% |
  Basic WFS set positions:           0.002     0.002   0.0% |
  Basis functions set positions:     0.000     0.000   0.0% |
  TCI: Calculate S, T, P:            0.274     0.274   0.1% |
PWDescriptor:                        0.017     0.017   0.0% |
Redistribute:                        0.000     0.000   0.0% |
SCF-cycle:                         510.667   189.820  36.9% |--------------|
 CG:                               168.646   149.177  29.0% |-----------|
  CG: orthonormalize:               19.469    11.262   2.2% ||
   CG: overlap:                      5.089     5.089   1.0% |
   CG: overlap2:                     3.118     3.118   0.6% |
 Davidson:                           5.490     3.382   0.7% |
  calc. matrices:                    1.422     1.422   0.3% |
  diagonalize:                       0.391     0.391   0.1% |
  rotate_psi:                        0.295     0.295   0.1% |
 Density:                            1.584     0.001   0.0% |
  Atomic density matrices:           0.117     0.117   0.0% |
  Mix:                               0.122     0.122   0.0% |
  Multipole moments:                 0.005     0.005   0.0% |
  Pseudo density:                    1.338     0.789   0.2% |
   Symmetrize density:               0.549     0.549   0.1% |
 Hamiltonian:                        5.375     0.013   0.0% |
  Atomic:                            4.210     0.020   0.0% |
   XC Correction:                    4.189     4.189   0.8% |
  Calculate atomic Hamiltonians:     0.054     0.054   0.0% |
  Communicate:                       0.000     0.000   0.0% |
  Poisson:                           0.004     0.004   0.0% |
  XC 3D grid:                        1.094     1.094   0.2% |
 Orthonormalize:                     0.141     0.011   0.0% |
  Band Layouts:                      0.008     0.003   0.0% |
   Inverse Cholesky:                 0.005     0.005   0.0% |
  calc_s_matrix:                     0.023     0.023   0.0% |
  projections:                       0.081     0.081   0.0% |
  rotate_psi:                        0.019     0.019   0.0% |
 Residuals:                         39.480    39.480   7.7% |--|
 Subspace diag:                    100.132     6.443   1.3% ||
  Band Layouts:                     12.327     1.871   0.4% |
   Diagonalize:                      9.124     9.124   1.8% ||
   Distribute results:               1.332     1.332   0.3% |
  calc_h_matrix:                    68.195    68.195  13.2% |----|
  rotate_psi:                       13.166    13.166   2.6% ||
Set symmetry:                        0.111     0.111   0.0% |
Other:                               2.217     2.217   0.4% |
-----------------------------------------------------------
Total:                                       515.081 100.0%

Date: Thu Feb 11 15:48:54 2021
element =  Cl
struct =  bcc
kpts =  (8,8,8)
element =  Cl
configuration =  [Ne] 3s2 3p5 3d0
valence =  ['3s', '3p', '3d']
occupations =  {'3s': 2, '3p': 5, '3d': 0}
nls =  3p
rNum =  600
lmax =  d
*******************************************
Starting confinement parameter optimization
Adjustable parameters and initial values:
  Cl_3d.r0 : 3.855041
  Cl_3p.r0 : 3.855041
  Cl_3s.r0 : 3.855041
  Cl_n.r0 : 5.782562
*******************************************

OPT_VAL: 3.8550412967073338   3.8550412967073338   3.8550412967073338   5.782561945061
VCONF:
  Cl_3d : PowerConfinement(r0=3.855041, s=2.000000)
  Cl_3p : PowerConfinement(r0=3.855041, s=2.000000)
  Cl_3s : PowerConfinement(r0=3.855041, s=2.000000)
  Cl_n : PowerConfinement(r0=5.782562, s=2.000000)
RESIDUAL: 0.0

OPT_VAL: 4.0550412967073335   3.8550412967073338   3.8550412967073338   5.782561945061
VCONF:
  Cl_3d : PowerConfinement(r0=4.055041, s=2.000000)
  Cl_3p : PowerConfinement(r0=3.855041, s=2.000000)
  Cl_3s : PowerConfinement(r0=3.855041, s=2.000000)
  Cl_n : PowerConfinement(r0=5.782562, s=2.000000)
RESIDUAL: 0.0

OPT_VAL: 3.8550412967073338   4.0550412967073335   3.8550412967073338   5.782561945061
VCONF:
  Cl_3d : PowerConfinement(r0=3.855041, s=2.000000)
  Cl_3p : PowerConfinement(r0=4.055041, s=2.000000)
  Cl_3s : PowerConfinement(r0=3.855041, s=2.000000)
  Cl_n : PowerConfinement(r0=5.782562, s=2.000000)
RESIDUAL: 0.0

OPT_VAL: 3.8550412967073338   3.8550412967073338   4.0550412967073335   5.782561945061
VCONF:
  Cl_3d : PowerConfinement(r0=3.855041, s=2.000000)
  Cl_3p : PowerConfinement(r0=3.855041, s=2.000000)
  Cl_3s : PowerConfinement(r0=4.055041, s=2.000000)
  Cl_n : PowerConfinement(r0=5.782562, s=2.000000)
RESIDUAL: 0.0

OPT_VAL: 3.8550412967073338   3.8550412967073338   3.8550412967073338   5.982561945061001
VCONF:
  Cl_3d : PowerConfinement(r0=3.855041, s=2.000000)
  Cl_3p : PowerConfinement(r0=3.855041, s=2.000000)
  Cl_3s : PowerConfinement(r0=3.855041, s=2.000000)
  Cl_n : PowerConfinement(r0=5.982562, s=2.000000)
RESIDUAL: 0.0

OPT_VAL: 3.8800412967073337   3.8550412967073338   3.8550412967073338   5.782561945061
VCONF:
  Cl_3d : PowerConfinement(r0=3.880041, s=2.000000)
  Cl_3p : PowerConfinement(r0=3.855041, s=2.000000)
  Cl_3s : PowerConfinement(r0=3.855041, s=2.000000)
  Cl_n : PowerConfinement(r0=5.782562, s=2.000000)
RESIDUAL: 0.0

OPT_VAL: 3.8550412967073338   3.8800412967073337   3.8550412967073338   5.782561945061
VCONF:
  Cl_3d : PowerConfinement(r0=3.855041, s=2.000000)
  Cl_3p : PowerConfinement(r0=3.880041, s=2.000000)
  Cl_3s : PowerConfinement(r0=3.855041, s=2.000000)
  Cl_n : PowerConfinement(r0=5.782562, s=2.000000)
RESIDUAL: 0.0

OPT_VAL: 3.8550412967073338   3.8550412967073338   3.8800412967073337   5.782561945061
VCONF:
  Cl_3d : PowerConfinement(r0=3.855041, s=2.000000)
  Cl_3p : PowerConfinement(r0=3.855041, s=2.000000)
  Cl_3s : PowerConfinement(r0=3.880041, s=2.000000)
  Cl_n : PowerConfinement(r0=5.782562, s=2.000000)
RESIDUAL: 0.0

OPT_VAL: 3.8550412967073338   3.8550412967073338   3.8550412967073338   5.807561945061001
VCONF:
  Cl_3d : PowerConfinement(r0=3.855041, s=2.000000)
  Cl_3p : PowerConfinement(r0=3.855041, s=2.000000)
  Cl_3s : PowerConfinement(r0=3.855041, s=2.000000)
  Cl_n : PowerConfinement(r0=5.807562, s=2.000000)
RESIDUAL: 0.0

OPT_VAL: 3.8600412967073336   3.8550412967073338   3.8550412967073338   5.782561945061
VCONF:
  Cl_3d : PowerConfinement(r0=3.860041, s=2.000000)
  Cl_3p : PowerConfinement(r0=3.855041, s=2.000000)
  Cl_3s : PowerConfinement(r0=3.855041, s=2.000000)
  Cl_n : PowerConfinement(r0=5.782562, s=2.000000)
RESIDUAL: 0.0

OPT_VAL: 3.8550412967073338   3.8600412967073336   3.8550412967073338   5.782561945061
VCONF:
  Cl_3d : PowerConfinement(r0=3.855041, s=2.000000)
  Cl_3p : PowerConfinement(r0=3.860041, s=2.000000)
  Cl_3s : PowerConfinement(r0=3.855041, s=2.000000)
  Cl_n : PowerConfinement(r0=5.782562, s=2.000000)
RESIDUAL: 0.0

OPT_VAL: 3.8550412967073338   3.8550412967073338   3.8600412967073336   5.782561945061
VCONF:
  Cl_3d : PowerConfinement(r0=3.855041, s=2.000000)
  Cl_3p : PowerConfinement(r0=3.855041, s=2.000000)
  Cl_3s : PowerConfinement(r0=3.860041, s=2.000000)
  Cl_n : PowerConfinement(r0=5.782562, s=2.000000)
RESIDUAL: 0.0

OPT_VAL: 3.8550412967073338   3.8550412967073338   3.8550412967073338   5.787561945061
VCONF:
  Cl_3d : PowerConfinement(r0=3.855041, s=2.000000)
  Cl_3p : PowerConfinement(r0=3.855041, s=2.000000)
  Cl_3s : PowerConfinement(r0=3.855041, s=2.000000)
  Cl_n : PowerConfinement(r0=5.787562, s=2.000000)
RESIDUAL: 0.0

*******************************************
Optimization finished after 13 iterations
Adjustable parameters and final values:
  Cl_3d.r0 : 3.855041
  Cl_3p.r0 : 3.855041
  Cl_3s.r0 : 3.855041
  Cl_n.r0 : 5.782562
*******************************************

VCONF:
  Cl_3d : PowerConfinement(r0=3.855041, s=2.000000)
  Cl_3p : PowerConfinement(r0=3.855041, s=2.000000)
  Cl_3s : PowerConfinement(r0=3.855041, s=2.000000)
  Cl_n : PowerConfinement(r0=5.782562, s=2.000000)
