element =  Ga
struct =  bcc
nbands =  -4
path =  GHNGP
kpts =  (8,8,8)
lattice constant a =  3.376
lattice constant b =  3.376
lattice constant c =  3.376
alpha angle =  90.0

  ___ ___ ___ _ _ _  
 |   |   |_  | | | | 
 | | | | | . | | | | 
 |__ |  _|___|_____|  1.3.1b1
 |___|_|             

User:   inukai@DESKTOP-12SE80T
Date:   Thu Feb 11 19:08:48 2021
Arch:   x86_64
Pid:    13268
Python: 3.6.9
gpaw:   /usr/lib/python3/dist-packages/gpaw
_gpaw:  /usr/lib/python3/dist-packages/_gpaw.cpython-36m-x86_64-linux-gnu.so
ase:    /home/inukai/hotcent/ase-3.19.3/ase (version 3.19.3)
numpy:  /home/inukai/.local/lib/python3.6/site-packages/numpy (version 1.19.5)
scipy:  /home/inukai/.local/lib/python3.6/site-packages/scipy (version 1.5.4)
units:  Angstrom and eV
cores:  1

Input parameters:
  kpts: [8 8 8]
  maxiter: 1500
  mixer: {backend: pulay,
          beta: 0.01,
          method: separate,
          nmaxold: 11,
          weight: 100.0}
  mode: {ecut: 400.0,
         name: pw}
  occupations: {name: fermi-dirac,
                width: 0.02}
  spinpol: True
  xc: PBE

System changes: positions, numbers, cell, pbc, initial_charges, initial_magmoms 

Initialize ...

Ga-setup:
  name: Gallium
  id: 818a1f824512bb44ae6134ae13584d59
  Z: 31
  valence: 3
  core: 28
  charge: 0.0
  file: /usr/share/gpaw-setups/Ga.PBE.gz
  cutoffs: 1.16(comp), 2.06(filt), 4.17(core), lmax=2
  valence states:
                energy  radius
    4s(2.00)    -8.945   1.164
    4p(1.00)    -2.580   1.164
    *s          18.266   1.164
    *p          24.631   1.164
    *d           0.000   1.164

  Using partial waves for Ga as LCAO basis

Reference energy: -52884.671529

Spin-polarized calculation.
Magnetic moment:  0.000000

Occupation numbers:
  Fermi-Dirac: width=0.0200 eV

Convergence criteria:
  Maximum total energy change: 0.0005 eV / electron
  Maximum integral of absolute density change: 0.0001 electrons
  Maximum integral of absolute eigenstate change: 4e-08 eV^2
  Maximum number of iterations: 1500

Symmetries present (total): 48

  ( 1  1  1)  ( 1  1  1)  ( 1  1  1)  ( 1  1  1)  ( 1  1  1)  ( 1  1  1)
  ( 0  0 -1)  ( 0  0 -1)  ( 0 -1  0)  ( 0 -1  0)  (-1  0  0)  (-1  0  0)
  ( 0 -1  0)  (-1  0  0)  ( 0  0 -1)  (-1  0  0)  ( 0  0 -1)  ( 0 -1  0)

  ( 1  0  0)  ( 1  0  0)  ( 1  0  0)  ( 1  0  0)  ( 1  0  0)  ( 1  0  0)
  ( 0  1  0)  ( 0  1  0)  ( 0  0  1)  ( 0  0  1)  (-1 -1 -1)  (-1 -1 -1)
  ( 0  0  1)  (-1 -1 -1)  ( 0  1  0)  (-1 -1 -1)  ( 0  1  0)  ( 0  0  1)

  ( 0  1  0)  ( 0  1  0)  ( 0  1  0)  ( 0  1  0)  ( 0  1  0)  ( 0  1  0)
  ( 1  0  0)  ( 1  0  0)  ( 0  0  1)  ( 0  0  1)  (-1 -1 -1)  (-1 -1 -1)
  ( 0  0  1)  (-1 -1 -1)  ( 1  0  0)  (-1 -1 -1)  ( 1  0  0)  ( 0  0  1)

  ( 0  0  1)  ( 0  0  1)  ( 0  0  1)  ( 0  0  1)  ( 0  0  1)  ( 0  0  1)
  ( 1  0  0)  ( 1  0  0)  ( 0  1  0)  ( 0  1  0)  (-1 -1 -1)  (-1 -1 -1)
  ( 0  1  0)  (-1 -1 -1)  ( 1  0  0)  (-1 -1 -1)  ( 1  0  0)  ( 0  1  0)

  ( 0  0 -1)  ( 0  0 -1)  ( 0  0 -1)  ( 0  0 -1)  ( 0  0 -1)  ( 0  0 -1)
  ( 1  1  1)  ( 1  1  1)  ( 0 -1  0)  ( 0 -1  0)  (-1  0  0)  (-1  0  0)
  ( 0 -1  0)  (-1  0  0)  ( 1  1  1)  (-1  0  0)  ( 1  1  1)  ( 0 -1  0)

  ( 0 -1  0)  ( 0 -1  0)  ( 0 -1  0)  ( 0 -1  0)  ( 0 -1  0)  ( 0 -1  0)
  ( 1  1  1)  ( 1  1  1)  ( 0  0 -1)  ( 0  0 -1)  (-1  0  0)  (-1  0  0)
  ( 0  0 -1)  (-1  0  0)  ( 1  1  1)  (-1  0  0)  ( 1  1  1)  ( 0  0 -1)

  (-1  0  0)  (-1  0  0)  (-1  0  0)  (-1  0  0)  (-1  0  0)  (-1  0  0)
  ( 1  1  1)  ( 1  1  1)  ( 0  0 -1)  ( 0  0 -1)  ( 0 -1  0)  ( 0 -1  0)
  ( 0  0 -1)  ( 0 -1  0)  ( 1  1  1)  ( 0 -1  0)  ( 1  1  1)  ( 0  0 -1)

  (-1 -1 -1)  (-1 -1 -1)  (-1 -1 -1)  (-1 -1 -1)  (-1 -1 -1)  (-1 -1 -1)
  ( 1  0  0)  ( 1  0  0)  ( 0  1  0)  ( 0  1  0)  ( 0  0  1)  ( 0  0  1)
  ( 0  1  0)  ( 0  0  1)  ( 1  0  0)  ( 0  0  1)  ( 1  0  0)  ( 0  1  0)

512 k-points: 8 x 8 x 8 Monkhorst-Pack grid
26 k-points in the irreducible part of the Brillouin zone
       k-points in crystal coordinates                weights
   0:     0.06250000    0.06250000   -0.06250000          6/512
   1:     0.18750000   -0.06250000   -0.06250000          8/512
   2:     0.18750000    0.06250000   -0.06250000         24/512
   3:     0.18750000    0.18750000   -0.18750000          6/512
   4:     0.31250000   -0.06250000   -0.06250000         24/512
   5:     0.31250000    0.06250000   -0.18750000         24/512
   6:     0.31250000    0.06250000   -0.06250000         24/512
   7:     0.31250000    0.18750000   -0.18750000         24/512
   8:     0.31250000    0.31250000   -0.31250000          6/512
   9:     0.31250000    0.31250000    0.18750000         12/512
          ...
  25:     0.43750000    0.43750000    0.43750000          8/512

Wave functions: Plane wave expansion
  Cutoff energy: 400.000 eV
  Number of coefficients (min, max): 339, 370
  Using FFTW library
  Eigensolver: None  MatrixOperator buffer_size: default value or 
                              see value of nblock in input file
Diagonalizer layout: Serial LAPACKOrthonormalizer layout: Serial LAPACK 

Davidson(niter=1, smin=None, normalize=True) 

Densities:
  Coarse grid: 12*12*12 grid
  Fine grid: 24*24*24 grid
  Total Charge: 0.000000 

Density mixing:
  Method: separate
  Backend: pulay
  Linear mixing parameter: 0.01
  Mixing with 11 old densities
  Damping of long wave oscillations: 100 

Hamiltonian:
  XC and Coulomb potentials evaluated on a 24*24*24 grid
  Using the PBE Exchange-Correlation functional
 

Memory estimate:
  Process memory now: 926.97 MiB
  Calculator: 4.08 MiB
    Density: 1.30 MiB
      Arrays: 0.46 MiB
      Localized functions: 0.26 MiB
      Mixer: 0.58 MiB
    Hamiltonian: 0.35 MiB
      Arrays: 0.34 MiB
      XC: 0.00 MiB
      Poisson: 0.00 MiB
      vbar: 0.01 MiB
    Wavefunctions: 2.44 MiB
      Arrays psit_nG: 1.17 MiB
      Eigensolver: 0.05 MiB
      Projections: 0.04 MiB
      Projectors: 0.97 MiB
      Overlap op: 0.02 MiB
      PW-descriptor: 0.17 MiB

Total number of cores used: 1

Number of atoms: 1
Number of atomic orbitals: 4
Number of bands in calculation: 4
Bands to converge: occupied states only
Number of valence electrons: 3

... initialized

Initializing position-dependent things.

Density initialized from atomic densities
Creating initial wave functions:
  4 bands from LCAO basis set

                
                
                
       Ga       
                
                
                
                

Positions:
   0 Ga     0.000000    0.000000    0.000000

Unit cell:
           periodic     x           y           z      points  spacing
  1. axis:    yes   -1.688000    1.688000    1.688000    12     0.1989
  2. axis:    yes    1.688000   -1.688000    1.688000    12     0.1989
  3. axis:    yes    1.688000    1.688000   -1.688000    12     0.1989

  Lengths:   2.923702   2.923702   2.923702
  Angles:  109.471221 109.471221 109.471221

Effective grid spacing dv^(1/3) = 0.2233

                     log10-error:    total        iterations:
           time      wfs    density  energy       fermi  poisson  magmom
iter:   1  19:08:50  +1.40   +inf    -2.872641    2               +0.0000
iter:   2  19:08:50  -0.97   +inf    -2.876133    2               -0.0000
iter:   3  19:08:51  -2.26   +inf    -2.876357    2               -0.0000
iter:   4  19:08:51  -3.16  -0.99    -2.876086    2               +0.0000
iter:   5  19:08:52  -1.74  -1.00    -2.862541    6               -0.0000
iter:   6  19:08:53  -3.05  -1.96    -2.862363    3               +0.0000
iter:   7  19:08:53  -4.30  -2.62    -2.862361    2               +0.0000
iter:   8  19:08:54  -4.21  -2.65    -2.862353    2               +0.0000
iter:   9  19:08:55  -4.77  -2.87    -2.862348    2               -0.0000
iter:  10  19:08:55  -6.10  -3.91    -2.862348    2               -0.0000
iter:  11  19:08:56  -6.96  -3.75    -2.862348    2               +0.0000
iter:  12  19:08:57  -7.34  -4.08    -2.862347    1               -0.0000
iter:  13  19:08:57  -8.24  -4.81    -2.862347    1               +0.0000

Converged after 13 iterations.

Dipole moment: (-0.000000, -0.000000, -0.000000) |e|*Ang

Total magnetic moment: 0.000000
Local magnetic moments:
   0 Ga 0.000000

Energy contributions relative to reference atoms: (reference = -52884.671529)

Kinetic:         +6.646936
Potential:       -5.264144
External:        +0.000000
XC:              -4.253346
Entropy (-ST):   -0.000491
Local:           +0.008452
--------------------------
Free energy:     -2.862593
Extrapolated:    -2.862347

Spin contamination: 0.000000 electrons
Fermi level: 6.20892

Warning: Showing only first 2 kpts
                      Up                     Down
 Kpt  Band  Eigenvalues  Occupancy  Eigenvalues  Occupancy
  0     0     -4.66187    0.01172     -4.66187    0.01172
  0     1     17.27092    0.00000     17.27092    0.00000
  0     2     17.27101    0.00000     17.27101    0.00000

  1     0     -4.24259    0.01562     -4.24259    0.01562
  1     1     14.56276    0.00000     14.56276    0.00000
  1     2     16.04189    0.00000     16.04189    0.00000


Input parameters:
  convergence: {bands: all}
  eigensolver: {name: cg,
                niter: 5}
  fixdensity: True
  kpts: {npoints: 50,
         path: GHNGP}
  nbands: -4
  symmetry: off

Initialize ...

Ga-setup:
  name: Gallium
  id: 818a1f824512bb44ae6134ae13584d59
  Z: 31
  valence: 3
  core: 28
  charge: 0.0
  file: /usr/share/gpaw-setups/Ga.PBE.gz
  cutoffs: 1.16(comp), 2.06(filt), 4.17(core), lmax=2
  valence states:
                energy  radius
    4s(2.00)    -8.945   1.164
    4p(1.00)    -2.580   1.164
    *s          18.266   1.164
    *p          24.631   1.164
    *d           0.000   1.164

  Using partial waves for Ga as LCAO basis

Reference energy: -52884.671529

Spin-polarized calculation.
Magnetic moment:  0.000000

Occupation numbers:
  Fixed Fermi level
  Fermi-Dirac: width=0.0200 eV

Convergence criteria:
  Maximum total energy change: 0.0005 eV / electron
  Maximum integral of absolute density change: 0.0001 electrons
  Maximum integral of absolute eigenstate change: 4e-08 eV^2
  Maximum number of iterations: 1500

Symmetries present (total): 1

  ( 1  0  0)
  ( 0  1  0)
  ( 0  0  1)

50 k-points
50 k-points in the irreducible part of the Brillouin zone
       k-points in crystal coordinates                weights
   0:     0.00000000    0.00000000    0.00000000          1/50
   1:     0.03571429   -0.03571429    0.03571429          1/50
   2:     0.07142857   -0.07142857    0.07142857          1/50
   3:     0.10714286   -0.10714286    0.10714286          1/50
   4:     0.14285714   -0.14285714    0.14285714          1/50
   5:     0.17857143   -0.17857143    0.17857143          1/50
   6:     0.21428571   -0.21428571    0.21428571          1/50
   7:     0.25000000   -0.25000000    0.25000000          1/50
   8:     0.28571429   -0.28571429    0.28571429          1/50
   9:     0.32142857   -0.32142857    0.32142857          1/50
          ...
  49:     0.25000000    0.25000000    0.25000000          1/50

Wave functions: Plane wave expansion
  Cutoff energy: 400.000 eV
  Number of coefficients (min, max): 336, 370
  Using FFTW library
  Eigensolver: None  MatrixOperator buffer_size: default value or 
                              see value of nblock in input file
Diagonalizer layout: Serial LAPACKOrthonormalizer layout: Serial LAPACK 

CG(niter=5, rtol=3.0e-01) 

No density mixing

Memory estimate:
  Process memory now: 986.52 MiB
  Calculator: 6.80 MiB
    Density: 1.30 MiB
      Arrays: 0.46 MiB
      Localized functions: 0.26 MiB
      Mixer: 0.58 MiB
    Hamiltonian: 0.35 MiB
      Arrays: 0.34 MiB
      XC: 0.00 MiB
      Poisson: 0.00 MiB
      vbar: 0.01 MiB
    Wavefunctions: 5.15 MiB
      Arrays psit_nG: 2.82 MiB
      Eigensolver: 0.06 MiB
      Projections: 0.10 MiB
      Projectors: 1.88 MiB
      Overlap op: 0.03 MiB
      PW-descriptor: 0.27 MiB

Total number of cores used: 1

Number of atoms: 1
Number of atomic orbitals: 4
Number of bands in calculation: 5
Bands to converge: all
Number of valence electrons: 3

... initialized

Initializing position-dependent things.

Creating initial wave functions:
  4 bands from LCAO basis set
  1 band from random numbers

                
                
                
       Ga       
                
                
                
                

Positions:
   0 Ga     0.000000    0.000000    0.000000

Unit cell:
           periodic     x           y           z      points  spacing
  1. axis:    yes   -1.688000    1.688000    1.688000    12     0.1989
  2. axis:    yes    1.688000   -1.688000    1.688000    12     0.1989
  3. axis:    yes    1.688000    1.688000   -1.688000    12     0.1989

  Lengths:   2.923702   2.923702   2.923702
  Angles:  109.471221 109.471221 109.471221

Effective grid spacing dv^(1/3) = 0.2233

                     log10-error:    total        iterations:
           time      wfs    density  energy       fermi  poisson  magmom
iter:   1  19:09:03  +3.79           -3.264748    33              -0.0019
iter:   2  19:09:05  +2.58           -3.283930    31              -0.0000
iter:   3  19:09:06  +1.65           -3.284720    31              -0.0000
iter:   4  19:09:08  +0.81           -3.284777    32              -0.0000
iter:   5  19:09:11  -0.00           -3.284784    33              -0.0000
iter:   6  19:09:13  -0.66           -3.284785    33              -0.0000
iter:   7  19:09:15  -1.20           -3.284785    32              -0.0000
iter:   8  19:09:17  -2.07           -3.284785    32              -0.0000
iter:   9  19:09:18  -2.58           -3.284785    32              -0.0000
iter:  10  19:09:20  -3.16           -3.284785    33              -0.0000
iter:  11  19:09:21  -3.71           -3.284785    30              +0.0000
iter:  12  19:09:22  -4.35           -3.284785    30              +0.0000
iter:  13  19:09:23  -4.22           -3.284785    30              +0.0000
iter:  14  19:09:23  -4.20           -3.284785    30              +0.0000
iter:  15  19:09:24  -4.46           -3.284785    30              +0.0000
iter:  16  19:09:25  -3.61           -3.284785    30              +0.0000
iter:  17  19:09:25  -4.23           -3.284785    30              +0.0000
iter:  18  19:09:26  -4.93           -3.284785    30              +0.0000
iter:  19  19:09:27  -4.51           -3.284785    30              +0.0000
iter:  20  19:09:27  -4.07           -3.284785    30              +0.0000
iter:  21  19:09:28  -4.79           -3.284785    30              +0.0000
iter:  22  19:09:29  -4.94           -3.284785    30              +0.0000
iter:  23  19:09:29  -5.31           -3.284785    30              +0.0000
iter:  24  19:09:30  -4.81           -3.284785    30              +0.0000
iter:  25  19:09:30  -5.32           -3.284785    30              +0.0000
iter:  26  19:09:31  -5.79           -3.284785    30              +0.0000
iter:  27  19:09:32  -5.54           -3.284785    30              +0.0000
iter:  28  19:09:32  -5.60           -3.284785    30              +0.0000
iter:  29  19:09:33  -5.96           -3.284785    30              +0.0000
iter:  30  19:09:33  -4.32           -3.284785    30              +0.0000
iter:  31  19:09:34  -4.48           -3.284785    30              +0.0000
iter:  32  19:09:35  -4.93           -3.284785    30              +0.0000
iter:  33  19:09:35  -5.50           -3.284785    30              +0.0000
iter:  34  19:09:36  -6.24           -3.284785    30              +0.0000
iter:  35  19:09:36  -5.99           -3.284785    30              +0.0000
iter:  36  19:09:37  -5.68           -3.284785    30              +0.0000
iter:  37  19:09:37  -6.37           -3.284785    30              +0.0000
iter:  38  19:09:38  -6.54           -3.284785    30              +0.0000
iter:  39  19:09:39  -6.43           -3.284785    30              +0.0000
iter:  40  19:09:39  -6.14           -3.284785    30              +0.0000
iter:  41  19:09:40  -6.23           -3.284785    30              +0.0000
iter:  42  19:09:40  -6.53           -3.284785    30              +0.0000
iter:  43  19:09:41  -6.53           -3.284785    30              +0.0000
iter:  44  19:09:42  -6.43           -3.284785    30              +0.0000
iter:  45  19:09:42  -5.82           -3.284785    30              +0.0000
iter:  46  19:09:43  -5.84           -3.284785    30              +0.0000
iter:  47  19:09:43  -6.42           -3.284785    30              +0.0000
iter:  48  19:09:44  -6.91           -3.284785    30              +0.0000
iter:  49  19:09:44  -6.55           -3.284785    30              +0.0000
iter:  50  19:09:45  -6.63           -3.284785    30              +0.0000
iter:  51  19:09:46  -6.56           -3.284785    30              +0.0000
iter:  52  19:09:46  -6.67           -3.284785    30              +0.0000
iter:  53  19:09:47  -5.48           -3.284785    30              +0.0000
iter:  54  19:09:47  -5.12           -3.284785    30              +0.0000
iter:  55  19:09:48  -5.93           -3.284785    30              +0.0000
iter:  56  19:09:48  -6.78           -3.284785    30              +0.0000
iter:  57  19:09:49  -5.49           -3.284785    30              +0.0000
iter:  58  19:09:50  -5.74           -3.284785    30              +0.0000
iter:  59  19:09:50  -6.34           -3.284785    30              +0.0000
iter:  60  19:09:51  -6.12           -3.284785    30              +0.0000
iter:  61  19:09:51  -5.74           -3.284785    30              +0.0000
iter:  62  19:09:52  -6.42           -3.284785    30              +0.0000
iter:  63  19:09:52  -6.77           -3.284785    30              +0.0000
iter:  64  19:09:53  -7.02           -3.284785    30              +0.0000
iter:  65  19:09:54  -6.97           -3.284785    30              +0.0000
iter:  66  19:09:54  -6.42           -3.284785    30              +0.0000
iter:  67  19:09:55  -5.69           -3.284785    30              +0.0000
iter:  68  19:09:55  -6.49           -3.284785    30              +0.0000
iter:  69  19:09:56  -7.28           -3.284785    30              +0.0000
iter:  70  19:09:57  -6.85           -3.284785    30              +0.0000
iter:  71  19:09:57  -6.80           -3.284785    30              +0.0000
iter:  72  19:09:58  -7.12           -3.284785    30              +0.0000
iter:  73  19:09:58  -7.22           -3.284785    30              +0.0000
iter:  74  19:09:59  -6.22           -3.284785    30              +0.0000
iter:  75  19:09:59  -6.52           -3.284785    30              +0.0000
iter:  76  19:10:00  -7.34           -3.284785    30              +0.0000
iter:  77  19:10:01  -7.11           -3.284785    30              +0.0000
iter:  78  19:10:01  -7.19           -3.284785    30              +0.0000
iter:  79  19:10:02  -7.03           -3.284785    30              +0.0000
iter:  80  19:10:02  -7.33           -3.284785    30              +0.0000
iter:  81  19:10:03  -7.42           -3.284785    30              +0.0000

Converged after 81 iterations.

Dipole moment: (-0.000000, -0.000000, -0.000000) |e|*Ang

Total magnetic moment: 0.000000
Local magnetic moments:
   0 Ga 0.000000

Energy contributions relative to reference atoms: (reference = -52884.671529)

Kinetic:         +6.224892
Potential:       -5.263951
External:        +0.000000
XC:              -4.253171
Entropy (-ST):   -0.001677
Local:           +0.008283
--------------------------
Free energy:     -3.285624
Extrapolated:    -3.284785

Spin contamination: 0.000000 electrons
Fixed Fermi level: 6.20892

Warning: Showing only first 2 kpts
                      Up                     Down
 Kpt  Band  Eigenvalues  Occupancy  Eigenvalues  Occupancy
  0     0     -4.87109    0.02000     -4.87109    0.02000
  0     1     18.38791    0.00000     18.38791    0.00000
  0     2     18.38791    0.00000     18.38791    0.00000

  1     0     -4.80279    0.02000     -4.80279    0.02000
  1     1     17.97648    0.00000     17.97648    0.00000
  1     2     17.97691    0.00000     17.97691    0.00000


Timing:                              incl.     excl.
-----------------------------------------------------------
Hamiltonian:                         0.569     0.002   0.0% |
 Atomic:                             0.455     0.002   0.0% |
  XC Correction:                     0.452     0.452   0.6% |
 Calculate atomic Hamiltonians:      0.006     0.006   0.0% |
 Communicate:                        0.000     0.000   0.0% |
 Initialize Hamiltonian:             0.000     0.000   0.0% |
 Poisson:                            0.000     0.000   0.0% |
 XC 3D grid:                         0.106     0.106   0.1% |
LCAO initialization:                 1.710     0.046   0.1% |
 LCAO eigensolver:                   0.933     0.014   0.0% |
  Calculate projections:             0.004     0.004   0.0% |
  DenseAtomicCorrection:             0.024     0.024   0.0% |
  Distribute overlap matrix:         0.005     0.005   0.0% |
  Orbital Layouts:                   0.025     0.025   0.0% |
  Potential matrix:                  0.143     0.143   0.2% |
  Sum over cells:                    0.718     0.718   0.9% |
 LCAO to grid:                       0.378     0.378   0.5% |
 Set positions (LCAO WFS):           0.354     0.001   0.0% |
  Basic WFS set positions:           0.002     0.002   0.0% |
  Basis functions set positions:     0.000     0.000   0.0% |
  TCI: Calculate S, T, P:            0.351     0.351   0.5% |
PWDescriptor:                        0.019     0.019   0.0% |
Redistribute:                        0.000     0.000   0.0% |
SCF-cycle:                          71.412    27.121  35.6% |-------------|
 CG:                                20.294    18.044  23.7% |--------|
  CG: orthonormalize:                2.250     1.322   1.7% ||
   CG: overlap:                      0.561     0.561   0.7% |
   CG: overlap2:                     0.366     0.366   0.5% |
 Davidson:                           2.899     1.777   2.3% ||
  calc. matrices:                    0.752     0.752   1.0% |
  diagonalize:                       0.214     0.214   0.3% |
  rotate_psi:                        0.156     0.156   0.2% |
 Density:                            0.746     0.001   0.0% |
  Atomic density matrices:           0.056     0.056   0.1% |
  Mix:                               0.058     0.058   0.1% |
  Multipole moments:                 0.003     0.003   0.0% |
  Pseudo density:                    0.629     0.365   0.5% |
   Symmetrize density:               0.264     0.264   0.3% |
 Hamiltonian:                        2.860     0.006   0.0% |
  Atomic:                            2.298     0.010   0.0% |
   XC Correction:                    2.288     2.288   3.0% ||
  Calculate atomic Hamiltonians:     0.026     0.026   0.0% |
  Communicate:                       0.000     0.000   0.0% |
  Poisson:                           0.002     0.002   0.0% |
  XC 3D grid:                        0.527     0.527   0.7% |
 Orthonormalize:                     0.134     0.011   0.0% |
  Band Layouts:                      0.008     0.003   0.0% |
   Inverse Cholesky:                 0.005     0.005   0.0% |
  calc_s_matrix:                     0.020     0.020   0.0% |
  projections:                       0.078     0.078   0.1% |
  rotate_psi:                        0.018     0.018   0.0% |
 Residuals:                          5.383     5.383   7.1% |--|
 Subspace diag:                     11.975     0.990   1.3% ||
  Band Layouts:                      1.337     0.285   0.4% |
   Diagonalize:                      0.852     0.852   1.1% |
   Distribute results:               0.200     0.200   0.3% |
  calc_h_matrix:                     7.892     7.892  10.4% |---|
  rotate_psi:                        1.756     1.756   2.3% ||
Set symmetry:                        0.111     0.111   0.1% |
Other:                               2.367     2.367   3.1% ||
-----------------------------------------------------------
Total:                                        76.189 100.0%

Date: Thu Feb 11 19:10:04 2021
element =  Ga
struct =  bcc
kpts =  (8,8,8)
element =  Ga
configuration =  [Ar] 3d10 4s2 4p1 4d0
valence =  ['4s', '4p', '4d']
occupations =  {'4s': 2, '4p': 1, '4d': 0}
nls =  4p
rNum =  600
lmax =  d
*******************************************
Starting confinement parameter optimization
Adjustable parameters and initial values:
  Ga_4d.r0 : 4.610932
  Ga_4p.r0 : 4.610932
  Ga_4s.r0 : 4.610932
  Ga_n.r0 : 6.916398
*******************************************

OPT_VAL: 4.610931747042105   4.610931747042105   4.610931747042105   6.916397620563158
VCONF:
  Ga_4d : PowerConfinement(r0=4.610932, s=2.000000)
  Ga_4p : PowerConfinement(r0=4.610932, s=2.000000)
  Ga_4s : PowerConfinement(r0=4.610932, s=2.000000)
  Ga_n : PowerConfinement(r0=6.916398, s=2.000000)
RESIDUAL: 0.0

OPT_VAL: 4.810931747042106   4.610931747042105   4.610931747042105   6.916397620563158
VCONF:
  Ga_4d : PowerConfinement(r0=4.810932, s=2.000000)
  Ga_4p : PowerConfinement(r0=4.610932, s=2.000000)
  Ga_4s : PowerConfinement(r0=4.610932, s=2.000000)
  Ga_n : PowerConfinement(r0=6.916398, s=2.000000)
RESIDUAL: 0.0

OPT_VAL: 4.610931747042105   4.810931747042106   4.610931747042105   6.916397620563158
VCONF:
  Ga_4d : PowerConfinement(r0=4.610932, s=2.000000)
  Ga_4p : PowerConfinement(r0=4.810932, s=2.000000)
  Ga_4s : PowerConfinement(r0=4.610932, s=2.000000)
  Ga_n : PowerConfinement(r0=6.916398, s=2.000000)
RESIDUAL: 0.0

OPT_VAL: 4.610931747042105   4.610931747042105   4.810931747042106   6.916397620563158
VCONF:
  Ga_4d : PowerConfinement(r0=4.610932, s=2.000000)
  Ga_4p : PowerConfinement(r0=4.610932, s=2.000000)
  Ga_4s : PowerConfinement(r0=4.810932, s=2.000000)
  Ga_n : PowerConfinement(r0=6.916398, s=2.000000)
RESIDUAL: 0.0

OPT_VAL: 4.610931747042105   4.610931747042105   4.610931747042105   7.116397620563158
VCONF:
  Ga_4d : PowerConfinement(r0=4.610932, s=2.000000)
  Ga_4p : PowerConfinement(r0=4.610932, s=2.000000)
  Ga_4s : PowerConfinement(r0=4.610932, s=2.000000)
  Ga_n : PowerConfinement(r0=7.116398, s=2.000000)
RESIDUAL: 0.0

OPT_VAL: 4.635931747042106   4.610931747042105   4.610931747042105   6.916397620563158
VCONF:
  Ga_4d : PowerConfinement(r0=4.635932, s=2.000000)
  Ga_4p : PowerConfinement(r0=4.610932, s=2.000000)
  Ga_4s : PowerConfinement(r0=4.610932, s=2.000000)
  Ga_n : PowerConfinement(r0=6.916398, s=2.000000)
RESIDUAL: 0.0

OPT_VAL: 4.610931747042105   4.635931747042106   4.610931747042105   6.916397620563158
VCONF:
  Ga_4d : PowerConfinement(r0=4.610932, s=2.000000)
  Ga_4p : PowerConfinement(r0=4.635932, s=2.000000)
  Ga_4s : PowerConfinement(r0=4.610932, s=2.000000)
  Ga_n : PowerConfinement(r0=6.916398, s=2.000000)
RESIDUAL: 0.0

OPT_VAL: 4.610931747042105   4.610931747042105   4.635931747042106   6.916397620563158
VCONF:
  Ga_4d : PowerConfinement(r0=4.610932, s=2.000000)
  Ga_4p : PowerConfinement(r0=4.610932, s=2.000000)
  Ga_4s : PowerConfinement(r0=4.635932, s=2.000000)
  Ga_n : PowerConfinement(r0=6.916398, s=2.000000)
RESIDUAL: 0.0

OPT_VAL: 4.610931747042105   4.610931747042105   4.610931747042105   6.9413976205631585
VCONF:
  Ga_4d : PowerConfinement(r0=4.610932, s=2.000000)
  Ga_4p : PowerConfinement(r0=4.610932, s=2.000000)
  Ga_4s : PowerConfinement(r0=4.610932, s=2.000000)
  Ga_n : PowerConfinement(r0=6.941398, s=2.000000)
RESIDUAL: 0.0

OPT_VAL: 4.615931747042105   4.610931747042105   4.610931747042105   6.916397620563158
VCONF:
  Ga_4d : PowerConfinement(r0=4.615932, s=2.000000)
  Ga_4p : PowerConfinement(r0=4.610932, s=2.000000)
  Ga_4s : PowerConfinement(r0=4.610932, s=2.000000)
  Ga_n : PowerConfinement(r0=6.916398, s=2.000000)
RESIDUAL: 0.0

OPT_VAL: 4.610931747042105   4.615931747042105   4.610931747042105   6.916397620563158
VCONF:
  Ga_4d : PowerConfinement(r0=4.610932, s=2.000000)
  Ga_4p : PowerConfinement(r0=4.615932, s=2.000000)
  Ga_4s : PowerConfinement(r0=4.610932, s=2.000000)
  Ga_n : PowerConfinement(r0=6.916398, s=2.000000)
RESIDUAL: 0.0

OPT_VAL: 4.610931747042105   4.610931747042105   4.615931747042105   6.916397620563158
VCONF:
  Ga_4d : PowerConfinement(r0=4.610932, s=2.000000)
  Ga_4p : PowerConfinement(r0=4.610932, s=2.000000)
  Ga_4s : PowerConfinement(r0=4.615932, s=2.000000)
  Ga_n : PowerConfinement(r0=6.916398, s=2.000000)
RESIDUAL: 0.0

OPT_VAL: 4.610931747042105   4.610931747042105   4.610931747042105   6.921397620563158
VCONF:
  Ga_4d : PowerConfinement(r0=4.610932, s=2.000000)
  Ga_4p : PowerConfinement(r0=4.610932, s=2.000000)
  Ga_4s : PowerConfinement(r0=4.610932, s=2.000000)
  Ga_n : PowerConfinement(r0=6.921398, s=2.000000)
RESIDUAL: 0.0

*******************************************
Optimization finished after 13 iterations
Adjustable parameters and final values:
  Ga_4d.r0 : 4.610932
  Ga_4p.r0 : 4.610932
  Ga_4s.r0 : 4.610932
  Ga_n.r0 : 6.916398
*******************************************

VCONF:
  Ga_4d : PowerConfinement(r0=4.610932, s=2.000000)
  Ga_4p : PowerConfinement(r0=4.610932, s=2.000000)
  Ga_4s : PowerConfinement(r0=4.610932, s=2.000000)
  Ga_n : PowerConfinement(r0=6.916398, s=2.000000)
