
     Program PWSCF v.6.0 (svn rev. 13079) starts on 26Feb2021 at  9: 0: 1 

     This program is part of the open-source Quantum ESPRESSO suite
     for quantum simulation of materials; please cite
         "P. Giannozzi et al., J. Phys.:Condens. Matter 21 395502 (2009);
          URL http://www.quantum-espresso.org", 
     in publications or presentations arising from this work. More details at
     http://www.quantum-espresso.org/quote

     Parallel version (MPI), running on     1 processors
     Reading input from espresso.pwi
Warning: card &IONS ignored
Warning: card / ignored
Warning: card &CELL ignored
Warning: card / ignored

     Current dimensions of program PWSCF are:
     Max number of different atomic species (ntypx) = 10
     Max number of k-points (npk) =  40000
     Max angular momentum in pseudopotentials (lmaxx) =  3
     Message from routine input:
     WARNING: "startingwfc" set to atomic+random may spoil restart

     Atomic positions and unit cell read from directory:
     ./pwscf.save/


     IMPORTANT: XC functional enforced from input :
     Exchange-correlation      = PBE ( 1  4  3  4 0 0)
     Any further DFT definition will be discarded
     Please, verify this is what you really want


     Subspace diagonalization in iterative solution of the eigenvalue problem:
     a serial algorithm will be used


     G-vector sticks info
     --------------------
     sticks:   dense  smooth     PW     G-vecs:    dense   smooth      PW
     Sum         499     397    121                14713    10527    1811



     bravais-lattice index     =            0
     lattice parameter (alat)  =       6.0359  a.u.
     unit-cell volume          =     308.3664 (a.u.)^3
     number of atoms/cell      =            2
     number of atomic types    =            1
     number of electrons       =        20.00
     number of Kohn-Sham states=           14
     kinetic-energy cutoff     =      40.0000  Ry
     charge density cutoff     =     200.0000  Ry
     Exchange-correlation      = PBE ( 1  4  3  4 0 0)

     celldm(1)=   6.035878  celldm(2)=   0.000000  celldm(3)=   0.000000
     celldm(4)=   0.000000  celldm(5)=   0.000000  celldm(6)=   0.000000

     crystal axes: (cart. coord. in units of alat)
               a(1) = (   1.000000   0.000000   0.000000 )  
               a(2) = (  -0.500000   0.866025   0.000000 )  
               a(3) = (   0.000000   0.000000   1.619254 )  

     reciprocal axes: (cart. coord. in units 2 pi/alat)
               b(1) = (  1.000000  0.577350 -0.000000 )  
               b(2) = (  0.000000  1.154701  0.000000 )  
               b(3) = (  0.000000 -0.000000  0.617568 )  


     PseudoPot. # 1 for Mg read from file:
     /home/inukai/tango/tests/1element/qe_fit_v3_Mg/../pseudo/mg_pbe_v1.4.uspp.F.UPF
     MD5 check sum: 8ffbd8f729fef71095aac5bd8316fb1f
     Pseudo is Ultrasoft, Zval = 10.0
     Generated by new atomic code, or converted to UPF format
     Using radial grid of  821 points,  7 beta functions with: 
                l(1) =   0
                l(2) =   0
                l(3) =   0
                l(4) =   1
                l(5) =   1
                l(6) =   2
                l(7) =   2
     Q(r) pseudized with  8 coefficients,  rinner =    1.200   1.200   1.200
                                                       1.200   1.200

     atomic species   valence    mass     pseudopotential
        Mg            10.00    24.30500     Mg( 1.00)

     12 Sym. Ops., with inversion, found
          (note: 12 additional sym.ops. were found but ignored
           their fractional translations are incommensurate with FFT grid)

                                    s                        frac. trans.

      isym =  1     identity                                     

 cryst.   s( 1) = (     1          0          0      )
                  (     0          1          0      )
                  (     0          0          1      )

 cart.    s( 1) = (  1.0000000  0.0000000  0.0000000 )
                  (  0.0000000  1.0000000  0.0000000 )
                  (  0.0000000  0.0000000  1.0000000 )


      isym =  2     180 deg rotation - cart. axis [1,0,0]        

 cryst.   s( 2) = (     1          0          0      )
                  (    -1         -1          0      )
                  (     0          0         -1      )

 cart.    s( 2) = (  1.0000000  0.0000000  0.0000000 )
                  (  0.0000000 -1.0000000  0.0000000 )
                  (  0.0000000  0.0000000 -1.0000000 )


      isym =  3     120 deg rotation - cryst. axis [0,0,1]       

 cryst.   s( 3) = (     0          1          0      )
                  (    -1         -1          0      )
                  (     0          0          1      )

 cart.    s( 3) = ( -0.5000000 -0.8660254  0.0000000 )
                  (  0.8660254 -0.5000000  0.0000000 )
                  (  0.0000000  0.0000000  1.0000000 )


      isym =  4     120 deg rotation - cryst. axis [0,0,-1]      

 cryst.   s( 4) = (    -1         -1          0      )
                  (     1          0          0      )
                  (     0          0          1      )

 cart.    s( 4) = ( -0.5000000  0.8660254  0.0000000 )
                  ( -0.8660254 -0.5000000  0.0000000 )
                  (  0.0000000  0.0000000  1.0000000 )


      isym =  5     180 deg rotation - cryst. axis [0,1,0]       

 cryst.   s( 5) = (    -1         -1          0      )
                  (     0          1          0      )
                  (     0          0         -1      )

 cart.    s( 5) = ( -0.5000000 -0.8660254  0.0000000 )
                  ( -0.8660254  0.5000000  0.0000000 )
                  (  0.0000000  0.0000000 -1.0000000 )


      isym =  6     180 deg rotation - cryst. axis [1,1,0]       

 cryst.   s( 6) = (     0          1          0      )
                  (     1          0          0      )
                  (     0          0         -1      )

 cart.    s( 6) = ( -0.5000000  0.8660254  0.0000000 )
                  (  0.8660254  0.5000000  0.0000000 )
                  (  0.0000000  0.0000000 -1.0000000 )


      isym =  7     inversion                                    

 cryst.   s( 7) = (    -1          0          0      )
                  (     0         -1          0      )
                  (     0          0         -1      )

 cart.    s( 7) = ( -1.0000000  0.0000000  0.0000000 )
                  (  0.0000000 -1.0000000  0.0000000 )
                  (  0.0000000  0.0000000 -1.0000000 )


      isym =  8     inv. 180 deg rotation - cart. axis [1,0,0]   

 cryst.   s( 8) = (    -1          0          0      )
                  (     1          1          0      )
                  (     0          0          1      )

 cart.    s( 8) = ( -1.0000000  0.0000000  0.0000000 )
                  (  0.0000000  1.0000000  0.0000000 )
                  (  0.0000000  0.0000000  1.0000000 )


      isym =  9     inv. 120 deg rotation - cryst. axis [0,0,1]  

 cryst.   s( 9) = (     0         -1          0      )
                  (     1          1          0      )
                  (     0          0         -1      )

 cart.    s( 9) = (  0.5000000  0.8660254  0.0000000 )
                  ( -0.8660254  0.5000000  0.0000000 )
                  (  0.0000000  0.0000000 -1.0000000 )


      isym = 10     inv. 120 deg rotation - cryst. axis [0,0,-1] 

 cryst.   s(10) = (     1          1          0      )
                  (    -1          0          0      )
                  (     0          0         -1      )

 cart.    s(10) = (  0.5000000 -0.8660254  0.0000000 )
                  (  0.8660254  0.5000000  0.0000000 )
                  (  0.0000000  0.0000000 -1.0000000 )


      isym = 11     inv. 180 deg rotation - cryst. axis [0,1,0]  

 cryst.   s(11) = (     1          1          0      )
                  (     0         -1          0      )
                  (     0          0          1      )

 cart.    s(11) = (  0.5000000  0.8660254  0.0000000 )
                  (  0.8660254 -0.5000000  0.0000000 )
                  (  0.0000000  0.0000000  1.0000000 )


      isym = 12     inv. 180 deg rotation - cryst. axis [1,1,0]  

 cryst.   s(12) = (     0         -1          0      )
                  (    -1          0          0      )
                  (     0          0          1      )

 cart.    s(12) = (  0.5000000 -0.8660254  0.0000000 )
                  ( -0.8660254 -0.5000000  0.0000000 )
                  (  0.0000000  0.0000000  1.0000000 )


   Cartesian axes

     site n.     atom                  positions (alat units)
         1           Mg  tau(   1) = (   0.0000000   0.5773503   1.2144408  )
         2           Mg  tau(   2) = (   0.5000000   0.2886751   0.4048136  )

   Crystallographic axes

     site n.     atom                  positions (cryst. coord.)
         1           Mg  tau(   1) = (  0.3333333  0.6666667  0.7500000  )
         2           Mg  tau(   2) = (  0.6666667  0.3333333  0.2500000  )

     number of k points=    50  gaussian smearing, width (Ry)=  0.0010
                       cart. coord. in units 2pi/alat
        k(    1) = (   0.0000000   0.0000000   0.0000000), wk =   0.0400000
        k(    2) = (   0.0833333   0.0481125   0.0000000), wk =   0.0400000
        k(    3) = (   0.1666667   0.0962250   0.0000000), wk =   0.0400000
        k(    4) = (   0.2500000   0.1443376   0.0000000), wk =   0.0400000
        k(    5) = (   0.3333333   0.1924501   0.0000000), wk =   0.0400000
        k(    6) = (   0.4166667   0.2405626   0.0000000), wk =   0.0400000
        k(    7) = (   0.5000000   0.2886751   0.0000000), wk =   0.0400000
        k(    8) = (   0.4444444   0.3849002   0.0000000), wk =   0.0400000
        k(    9) = (   0.3888889   0.4811252   0.0000000), wk =   0.0400000
        k(   10) = (   0.3333333   0.5773503   0.0000000), wk =   0.0400000
        k(   11) = (   0.2916667   0.5051815   0.0000000), wk =   0.0400000
        k(   12) = (   0.2500000   0.4330127   0.0000000), wk =   0.0400000
        k(   13) = (   0.2083333   0.3608439   0.0000000), wk =   0.0400000
        k(   14) = (   0.1666667   0.2886751   0.0000000), wk =   0.0400000
        k(   15) = (   0.1250000   0.2165064   0.0000000), wk =   0.0400000
        k(   16) = (   0.0833333   0.1443376   0.0000000), wk =   0.0400000
        k(   17) = (   0.0416667   0.0721688   0.0000000), wk =   0.0400000
        k(   18) = (   0.0000000   0.0000000   0.0000000), wk =   0.0400000
        k(   19) = (   0.0000000   0.0000000   0.1029280), wk =   0.0400000
        k(   20) = (   0.0000000   0.0000000   0.2058561), wk =   0.0400000
        k(   21) = (   0.0000000   0.0000000   0.3087841), wk =   0.0400000
        k(   22) = (   0.0714286   0.0412393   0.3087841), wk =   0.0400000
        k(   23) = (   0.1428571   0.0824786   0.3087841), wk =   0.0400000
        k(   24) = (   0.2142857   0.1237179   0.3087841), wk =   0.0400000
        k(   25) = (   0.2857143   0.1649572   0.3087841), wk =   0.0400000
        k(   26) = (   0.3571429   0.2061965   0.3087841), wk =   0.0400000
        k(   27) = (   0.4285714   0.2474358   0.3087841), wk =   0.0400000
        k(   28) = (   0.5000000   0.2886751   0.3087841), wk =   0.0400000
        k(   29) = (   0.4583333   0.3608439   0.3087841), wk =   0.0400000
        k(   30) = (   0.4166667   0.4330127   0.3087841), wk =   0.0400000
        k(   31) = (   0.3750000   0.5051815   0.3087841), wk =   0.0400000
        k(   32) = (   0.3333333   0.5773503   0.3087841), wk =   0.0400000
        k(   33) = (   0.2962963   0.5132002   0.3087841), wk =   0.0400000
        k(   34) = (   0.2592593   0.4490502   0.3087841), wk =   0.0400000
        k(   35) = (   0.2222222   0.3849002   0.3087841), wk =   0.0400000
        k(   36) = (   0.1851852   0.3207501   0.3087841), wk =   0.0400000
        k(   37) = (   0.1481481   0.2566001   0.3087841), wk =   0.0400000
        k(   38) = (   0.1111111   0.1924501   0.3087841), wk =   0.0400000
        k(   39) = (   0.0740741   0.1283001   0.3087841), wk =   0.0400000
        k(   40) = (   0.0370370   0.0641500   0.3087841), wk =   0.0400000
        k(   41) = (   0.0000000   0.0000000   0.3087841), wk =   0.0400000
        k(   42) = (   0.5000000   0.2886751   0.3087841), wk =   0.0400000
        k(   43) = (   0.5000000   0.2886751   0.2315881), wk =   0.0400000
        k(   44) = (   0.5000000   0.2886751   0.1543920), wk =   0.0400000
        k(   45) = (   0.5000000   0.2886751   0.0771960), wk =   0.0400000
        k(   46) = (   0.5000000   0.2886751   0.0000000), wk =   0.0400000
        k(   47) = (   0.3333333   0.5773503   0.0000000), wk =   0.0400000
        k(   48) = (   0.3333333   0.5773503   0.1029280), wk =   0.0400000
        k(   49) = (   0.3333333   0.5773503   0.2058561), wk =   0.0400000
        k(   50) = (   0.3333333   0.5773503   0.3087841), wk =   0.0400000

                       cryst. coord.
        k(    1) = (   0.0000000   0.0000000   0.0000000), wk =   0.0400000
        k(    2) = (   0.0833333   0.0000000   0.0000000), wk =   0.0400000
        k(    3) = (   0.1666667   0.0000000   0.0000000), wk =   0.0400000
        k(    4) = (   0.2500000   0.0000000   0.0000000), wk =   0.0400000
        k(    5) = (   0.3333333   0.0000000   0.0000000), wk =   0.0400000
        k(    6) = (   0.4166667   0.0000000   0.0000000), wk =   0.0400000
        k(    7) = (   0.5000000   0.0000000   0.0000000), wk =   0.0400000
        k(    8) = (   0.4444444   0.1111111   0.0000000), wk =   0.0400000
        k(    9) = (   0.3888889   0.2222222   0.0000000), wk =   0.0400000
        k(   10) = (   0.3333333   0.3333333   0.0000000), wk =   0.0400000
        k(   11) = (   0.2916667   0.2916667   0.0000000), wk =   0.0400000
        k(   12) = (   0.2500000   0.2500000   0.0000000), wk =   0.0400000
        k(   13) = (   0.2083333   0.2083333   0.0000000), wk =   0.0400000
        k(   14) = (   0.1666667   0.1666667   0.0000000), wk =   0.0400000
        k(   15) = (   0.1250000   0.1250000   0.0000000), wk =   0.0400000
        k(   16) = (   0.0833333   0.0833333   0.0000000), wk =   0.0400000
        k(   17) = (   0.0416667   0.0416667   0.0000000), wk =   0.0400000
        k(   18) = (   0.0000000   0.0000000   0.0000000), wk =   0.0400000
        k(   19) = (   0.0000000   0.0000000   0.1666667), wk =   0.0400000
        k(   20) = (   0.0000000   0.0000000   0.3333333), wk =   0.0400000
        k(   21) = (   0.0000000   0.0000000   0.5000000), wk =   0.0400000
        k(   22) = (   0.0714286   0.0000000   0.5000000), wk =   0.0400000
        k(   23) = (   0.1428571   0.0000000   0.5000000), wk =   0.0400000
        k(   24) = (   0.2142857   0.0000000   0.5000000), wk =   0.0400000
        k(   25) = (   0.2857143   0.0000000   0.5000000), wk =   0.0400000
        k(   26) = (   0.3571429   0.0000000   0.5000000), wk =   0.0400000
        k(   27) = (   0.4285714   0.0000000   0.5000000), wk =   0.0400000
        k(   28) = (   0.5000000   0.0000000   0.5000000), wk =   0.0400000
        k(   29) = (   0.4583333   0.0833333   0.5000000), wk =   0.0400000
        k(   30) = (   0.4166667   0.1666667   0.5000000), wk =   0.0400000
        k(   31) = (   0.3750000   0.2500000   0.5000000), wk =   0.0400000
        k(   32) = (   0.3333333   0.3333333   0.5000000), wk =   0.0400000
        k(   33) = (   0.2962963   0.2962963   0.5000000), wk =   0.0400000
        k(   34) = (   0.2592593   0.2592593   0.5000000), wk =   0.0400000
        k(   35) = (   0.2222222   0.2222222   0.5000000), wk =   0.0400000
        k(   36) = (   0.1851852   0.1851852   0.5000000), wk =   0.0400000
        k(   37) = (   0.1481481   0.1481481   0.5000000), wk =   0.0400000
        k(   38) = (   0.1111111   0.1111111   0.5000000), wk =   0.0400000
        k(   39) = (   0.0740741   0.0740741   0.5000000), wk =   0.0400000
        k(   40) = (   0.0370370   0.0370370   0.5000000), wk =   0.0400000
        k(   41) = (   0.0000000   0.0000000   0.5000000), wk =   0.0400000
        k(   42) = (   0.5000000   0.0000000   0.5000000), wk =   0.0400000
        k(   43) = (   0.5000000   0.0000000   0.3750000), wk =   0.0400000
        k(   44) = (   0.5000000   0.0000000   0.2500000), wk =   0.0400000
        k(   45) = (   0.5000000   0.0000000   0.1250000), wk =   0.0400000
        k(   46) = (   0.5000000   0.0000000   0.0000000), wk =   0.0400000
        k(   47) = (   0.3333333   0.3333333   0.0000000), wk =   0.0400000
        k(   48) = (   0.3333333   0.3333333   0.1666667), wk =   0.0400000
        k(   49) = (   0.3333333   0.3333333   0.3333333), wk =   0.0400000
        k(   50) = (   0.3333333   0.3333333   0.5000000), wk =   0.0400000

     Dense  grid:    14713 G-vectors     FFT dimensions: (  27,  27,  45)

     Smooth grid:    10527 G-vectors     FFT dimensions: (  25,  25,  40)

     Estimated max dynamical RAM per process >      21.51Mb

     The potential is recalculated from file :
     ./pwscf.save/charge-density.dat

     Starting wfc are   10 randomized atomic wfcs +    4 random wfc

     Band Structure Calculation
     Davidson diagonalization with overlap

     Computing kpt #:     1
     total cpu time spent up to now is        1.0 secs

     Computing kpt #:     2
     total cpu time spent up to now is        1.2 secs

     Computing kpt #:     3
     total cpu time spent up to now is        1.4 secs

     Computing kpt #:     4
     total cpu time spent up to now is        1.7 secs

     Computing kpt #:     5
     total cpu time spent up to now is        1.9 secs

     Computing kpt #:     6
     total cpu time spent up to now is        2.1 secs

     Computing kpt #:     7
     total cpu time spent up to now is        2.3 secs

     Computing kpt #:     8
     total cpu time spent up to now is        2.5 secs

     Computing kpt #:     9
     total cpu time spent up to now is        2.8 secs

     Computing kpt #:    10
     total cpu time spent up to now is        3.0 secs

     Computing kpt #:    11
     total cpu time spent up to now is        3.2 secs

     Computing kpt #:    12
     total cpu time spent up to now is        3.4 secs

     Computing kpt #:    13
     total cpu time spent up to now is        3.7 secs

     Computing kpt #:    14
     total cpu time spent up to now is        3.9 secs

     Computing kpt #:    15
     total cpu time spent up to now is        4.2 secs

     Computing kpt #:    16
     total cpu time spent up to now is        4.6 secs

     Computing kpt #:    17
     total cpu time spent up to now is        4.9 secs

     Computing kpt #:    18
     total cpu time spent up to now is        5.2 secs

     Computing kpt #:    19
     total cpu time spent up to now is        5.6 secs

     Computing kpt #:    20
     total cpu time spent up to now is        6.0 secs

     Computing kpt #:    21
     total cpu time spent up to now is        6.3 secs

     Computing kpt #:    22
     total cpu time spent up to now is        6.6 secs

     Computing kpt #:    23
     total cpu time spent up to now is        6.8 secs

     Computing kpt #:    24
     total cpu time spent up to now is        7.1 secs

     Computing kpt #:    25
     total cpu time spent up to now is        7.3 secs

     Computing kpt #:    26
     total cpu time spent up to now is        7.5 secs

     Computing kpt #:    27
     total cpu time spent up to now is        7.8 secs

     Computing kpt #:    28
     total cpu time spent up to now is        8.2 secs

     Computing kpt #:    29
     total cpu time spent up to now is        8.5 secs

     Computing kpt #:    30
     total cpu time spent up to now is        8.7 secs

     Computing kpt #:    31
     total cpu time spent up to now is        8.9 secs

     Computing kpt #:    32
     total cpu time spent up to now is        9.1 secs

     Computing kpt #:    33
     total cpu time spent up to now is        9.3 secs

     Computing kpt #:    34
     total cpu time spent up to now is        9.5 secs

     Computing kpt #:    35
     total cpu time spent up to now is        9.7 secs

     Computing kpt #:    36
     total cpu time spent up to now is        9.9 secs

     Computing kpt #:    37
     total cpu time spent up to now is       10.1 secs

     Computing kpt #:    38
     total cpu time spent up to now is       10.4 secs

     Computing kpt #:    39
     total cpu time spent up to now is       10.6 secs

     Computing kpt #:    40
     total cpu time spent up to now is       10.9 secs

     Computing kpt #:    41
     total cpu time spent up to now is       11.2 secs

     Computing kpt #:    42
     total cpu time spent up to now is       11.6 secs

     Computing kpt #:    43
     total cpu time spent up to now is       11.9 secs

     Computing kpt #:    44
     total cpu time spent up to now is       12.1 secs

     Computing kpt #:    45
     total cpu time spent up to now is       12.4 secs

     Computing kpt #:    46
     total cpu time spent up to now is       12.6 secs

     Computing kpt #:    47
     total cpu time spent up to now is       12.8 secs

     Computing kpt #:    48
     total cpu time spent up to now is       13.0 secs

     Computing kpt #:    49
     total cpu time spent up to now is       13.2 secs

     Computing kpt #:    50
     total cpu time spent up to now is       13.4 secs

     ethr =  5.00E-10,  avg # of iterations = 16.6

     total cpu time spent up to now is       13.4 secs

     End of band structure calculation

          k = 0.0000 0.0000 0.0000 (  1315 PWs)   bands (ev):

   -70.5519 -70.5488 -37.3427 -37.3095 -37.3084 -37.3084 -37.3033 -37.3033
    -1.5033   3.7740   4.2344  16.3891  16.3891  16.5174

          k = 0.0833 0.0481 0.0000 (  1325 PWs)   bands (ev):

   -70.5517 -70.5488 -37.3420 -37.3099 -37.3098 -37.3089 -37.3049 -37.3036
    -1.3660   3.8987   4.3675  14.1145  15.1936  15.9981

          k = 0.1667 0.0962 0.0000 (  1317 PWs)   bands (ev):

   -70.5512 -70.5486 -37.3400 -37.3142 -37.3107 -37.3102 -37.3094 -37.3044
    -0.9555   4.2730   4.7617  11.5858  14.1608  14.7747

          k = 0.2500 0.1443 0.0000 (  1317 PWs)   bands (ev):

   -70.5506 -70.5483 -37.3369 -37.3201 -37.3154 -37.3123 -37.3121 -37.3055
    -0.2757   4.8976   5.3923   9.2498  13.3580  13.4705

          k = 0.3333 0.1925 0.0000 (  1304 PWs)   bands (ev):

   -70.5498 -70.5481 -37.3334 -37.3260 -37.3213 -37.3144 -37.3139 -37.3067
     0.6671   5.7736   6.0471   7.3492  11.8346  12.0105

          k = 0.4167 0.2406 0.0000 (  1320 PWs)   bands (ev):

   -70.5492 -70.5480 -37.3304 -37.3301 -37.3256 -37.3166 -37.3152 -37.3075
     1.8640   4.9334   6.8996   7.6686   9.9469  10.4632

          k = 0.5000 0.2887 0.0000 (  1316 PWs)   bands (ev):

   -70.5490 -70.5480 -37.3320 -37.3286 -37.3271 -37.3177 -37.3157 -37.3079
     3.2969   3.3048   8.1183   8.4735   8.7636   9.1671

          k = 0.4444 0.3849 0.0000 (  1312 PWs)   bands (ev):

   -70.5489 -70.5480 -37.3312 -37.3279 -37.3263 -37.3183 -37.3172 -37.3097
     3.4672   3.4799   8.2815   8.6443   8.7651   8.9184

          k = 0.3889 0.4811 0.0000 (  1332 PWs)   bands (ev):

   -70.5486 -70.5481 -37.3290 -37.3258 -37.3241 -37.3207 -37.3200 -37.3142
     3.9779   4.0004   6.9415   8.7719   9.1483   9.3581

          k = 0.3333 0.5774 0.0000 (  1350 PWs)   bands (ev):

   -70.5483 -70.5483 -37.3273 -37.3228 -37.3228 -37.3226 -37.3226 -37.3176
     4.8186   4.8471   4.8471   9.5909   9.5909   9.8069

          k = 0.2917 0.5052 0.0000 (  1330 PWs)   bands (ev):

   -70.5486 -70.5481 -37.3277 -37.3255 -37.3242 -37.3206 -37.3202 -37.3159
     3.4003   5.6573   5.6881   8.3628   9.2275  10.4222

          k = 0.2500 0.4330 0.0000 (  1314 PWs)   bands (ev):

   -70.5490 -70.5480 -37.3286 -37.3269 -37.3250 -37.3178 -37.3177 -37.3131
     2.1279   6.4445   6.7374   7.1508   8.3922  11.4405

          k = 0.2083 0.3608 0.0000 (  1318 PWs)   bands (ev):

   -70.5496 -70.5480 -37.3320 -37.3241 -37.3238 -37.3153 -37.3149 -37.3102
     1.0347   6.1180   6.4266   7.9752   8.6183  12.6464

          k = 0.1667 0.2887 0.0000 (  1314 PWs)   bands (ev):

   -70.5502 -70.5482 -37.3353 -37.3208 -37.3197 -37.3133 -37.3123 -37.3077
     0.1297   5.2729   5.7559   9.3989   9.8321  14.0393

          k = 0.1250 0.2165 0.0000 (  1316 PWs)   bands (ev):

   -70.5509 -70.5484 -37.3383 -37.3167 -37.3145 -37.3116 -37.3100 -37.3057
    -0.5809   4.6164   5.1150  11.0032  11.3639  15.6159

          k = 0.0833 0.1443 0.0000 (  1318 PWs)   bands (ev):

   -70.5514 -70.5486 -37.3406 -37.3126 -37.3104 -37.3104 -37.3074 -37.3043
    -1.0921   4.1481   4.6313  12.7751  13.0765  17.0346

          k = 0.0417 0.0722 0.0000 (  1322 PWs)   bands (ev):

   -70.5518 -70.5488 -37.3422 -37.3097 -37.3095 -37.3088 -37.3045 -37.3035
    -1.4003   3.8675   4.3343  14.6751  14.8818  16.8817

          k = 0.0000 0.0000 0.0000 (  1315 PWs)   bands (ev):

   -70.5519 -70.5488 -37.3427 -37.3095 -37.3084 -37.3084 -37.3033 -37.3033
    -1.5033   3.7740   4.2344  16.3891  16.3891  16.5174

          k = 0.0000 0.0000 0.1029 (  1298 PWs)   bands (ev):

   -70.5517 -70.5490 -37.3405 -37.3117 -37.3080 -37.3080 -37.3036 -37.3036
    -1.3462   2.3387   5.9405  15.8481  16.5115  16.5115

          k = 0.0000 0.0000 0.2059 (  1292 PWs)   bands (ev):

   -70.5511 -70.5496 -37.3344 -37.3178 -37.3071 -37.3071 -37.3046 -37.3046
    -0.8766   0.9764   8.1144  13.1710  16.8471  16.8471

          k = 0.0000 0.0000 0.3088 (  1316 PWs)   bands (ev):

   -70.5504 -70.5504 -37.3262 -37.3262 -37.3058 -37.3058 -37.3058 -37.3058
    -0.0998  -0.0995  10.5375  10.5375  17.1370  17.1370

          k = 0.0714 0.0412 0.3088 (  1298 PWs)   bands (ev):

   -70.5503 -70.5503 -37.3262 -37.3262 -37.3068 -37.3068 -37.3061 -37.3061
    -0.0005  -0.0002  10.6174  10.6174  15.6276  15.6278

          k = 0.1429 0.0825 0.3088 (  1310 PWs)   bands (ev):

   -70.5500 -70.5500 -37.3266 -37.3266 -37.3093 -37.3093 -37.3069 -37.3069
     0.2965   0.2968  10.8383  10.8383  13.5523  13.5526

          k = 0.2143 0.1237 0.3088 (  1304 PWs)   bands (ev):

   -70.5496 -70.5496 -37.3276 -37.3276 -37.3125 -37.3125 -37.3081 -37.3081
     0.7893   0.7896  10.8910  10.8911  11.8770  11.8771

          k = 0.2857 0.1650 0.3088 (  1314 PWs)   bands (ev):

   -70.5492 -70.5492 -37.3297 -37.3297 -37.3150 -37.3150 -37.3095 -37.3095
     1.4743   1.4746   9.3997   9.4000  12.0260  12.0260

          k = 0.3571 0.2062 0.3088 (  1322 PWs)   bands (ev):

   -70.5488 -70.5488 -37.3326 -37.3326 -37.3163 -37.3163 -37.3107 -37.3107
     2.3457   2.3460   7.6910   7.6913  12.6439  12.6439

          k = 0.4286 0.2474 0.3088 (  1316 PWs)   bands (ev):

   -70.5486 -70.5486 -37.3350 -37.3350 -37.3167 -37.3167 -37.3115 -37.3115
     3.3894   3.3897   6.1298   6.1300  13.2399  13.2400

          k = 0.5000 0.2887 0.3088 (  1316 PWs)   bands (ev):

   -70.5485 -70.5485 -37.3359 -37.3359 -37.3168 -37.3168 -37.3118 -37.3118
     4.3449   4.3449   5.0008   5.0008  13.4960  13.4962

          k = 0.4583 0.3608 0.3088 (  1320 PWs)   bands (ev):

   -70.5485 -70.5485 -37.3355 -37.3355 -37.3173 -37.3173 -37.3122 -37.3122
     4.4372   4.4372   5.0991   5.0991  11.6137  11.6139

          k = 0.4167 0.4330 0.3088 (  1328 PWs)   bands (ev):

   -70.5484 -70.5484 -37.3343 -37.3343 -37.3190 -37.3190 -37.3128 -37.3128
     4.7132   4.7132   5.3891   5.3891   9.7375   9.7378

          k = 0.3750 0.5052 0.3088 (  1328 PWs)   bands (ev):

   -70.5483 -70.5483 -37.3328 -37.3328 -37.3213 -37.3213 -37.3132 -37.3132
     5.1659   5.1659   5.8400   5.8400   8.0282   8.0284

          k = 0.3333 0.5774 0.3088 (  1320 PWs)   bands (ev):

   -70.5483 -70.5483 -37.3321 -37.3321 -37.3225 -37.3225 -37.3133 -37.3133
     5.6447   5.6447   6.1191   6.1193   6.9996   6.9996

          k = 0.2963 0.5132 0.3088 (  1322 PWs)   bands (ev):

   -70.5483 -70.5483 -37.3325 -37.3325 -37.3216 -37.3216 -37.3132 -37.3132
     4.8232   4.8234   6.6386   6.6387   7.5152   7.5153

          k = 0.2593 0.4491 0.3088 (  1332 PWs)   bands (ev):

   -70.5484 -70.5484 -37.3326 -37.3326 -37.3197 -37.3197 -37.3129 -37.3129
     3.7258   3.7261   7.5104   7.5105   8.3773   8.3774

          k = 0.2222 0.3849 0.3088 (  1332 PWs)   bands (ev):

   -70.5487 -70.5487 -37.3319 -37.3319 -37.3178 -37.3178 -37.3122 -37.3122
     2.7335   2.7338   8.5464   8.5464   9.3731   9.3731

          k = 0.1852 0.3208 0.3088 (  1330 PWs)   bands (ev):

   -70.5490 -70.5490 -37.3303 -37.3303 -37.3160 -37.3160 -37.3109 -37.3109
     1.8790   1.8793   9.7362   9.7362  10.4044  10.4045

          k = 0.1481 0.2566 0.3088 (  1316 PWs)   bands (ev):

   -70.5494 -70.5494 -37.3284 -37.3284 -37.3140 -37.3140 -37.3094 -37.3094
     1.1722   1.1725  11.0490  11.0491  11.1288  11.1290

          k = 0.1111 0.1925 0.3088 (  1304 PWs)   bands (ev):

   -70.5498 -70.5498 -37.3271 -37.3271 -37.3114 -37.3114 -37.3079 -37.3079
     0.6181   0.6184  11.0406  11.0406  12.5689  12.5690

          k = 0.0741 0.1283 0.3088 (  1300 PWs)   bands (ev):

   -70.5501 -70.5501 -37.3265 -37.3265 -37.3087 -37.3087 -37.3068 -37.3068
     0.2200   0.2203  10.7867  10.7867  14.1921  14.1921

          k = 0.0370 0.0642 0.3088 (  1298 PWs)   bands (ev):

   -70.5503 -70.5503 -37.3262 -37.3262 -37.3066 -37.3066 -37.3061 -37.3061
    -0.0197  -0.0194  10.6021  10.6021  15.9005  15.9005

          k = 0.0000 0.0000 0.3088 (  1316 PWs)   bands (ev):

   -70.5504 -70.5504 -37.3262 -37.3262 -37.3058 -37.3058 -37.3058 -37.3058
    -0.0998  -0.0995  10.5375  10.5375  17.1370  17.1370

          k = 0.5000 0.2887 0.3088 (  1316 PWs)   bands (ev):

   -70.5485 -70.5485 -37.3359 -37.3359 -37.3168 -37.3168 -37.3118 -37.3118
     4.3449   4.3449   5.0008   5.0008  13.4960  13.4962

          k = 0.5000 0.2887 0.2316 (  1310 PWs)   bands (ev):

   -70.5487 -70.5483 -37.3366 -37.3340 -37.3192 -37.3157 -37.3133 -37.3103
     3.9974   4.0243   5.4743   5.5157  12.5557  12.9757

          k = 0.5000 0.2887 0.1544 (  1312 PWs)   bands (ev):

   -70.5489 -70.5481 -37.3359 -37.3312 -37.3225 -37.3159 -37.3145 -37.3090
     3.6161   3.6346   6.3423   6.3729  11.3041  11.4828

          k = 0.5000 0.2887 0.0772 (  1322 PWs)   bands (ev):

   -70.5490 -70.5480 -37.3339 -37.3285 -37.3261 -37.3170 -37.3154 -37.3082
     3.3773   3.3881   7.3616   7.3928   9.9947  10.0275

          k = 0.5000 0.2887 0.0000 (  1316 PWs)   bands (ev):

   -70.5490 -70.5480 -37.3320 -37.3286 -37.3271 -37.3177 -37.3157 -37.3079
     3.2969   3.3048   8.1183   8.4735   8.7636   9.1671

          k = 0.3333 0.5774 0.0000 (  1350 PWs)   bands (ev):

   -70.5483 -70.5483 -37.3273 -37.3228 -37.3228 -37.3226 -37.3226 -37.3176
     4.8186   4.8471   4.8471   9.5909   9.5909   9.8069

          k = 0.3333 0.5774 0.1029 (  1335 PWs)   bands (ev):

   -70.5483 -70.5483 -37.3274 -37.3274 -37.3267 -37.3183 -37.3180 -37.3180
     4.9630   4.9796   4.9796   8.4324   8.7075   8.7075

          k = 0.3333 0.5774 0.2059 (  1323 PWs)   bands (ev):

   -70.5483 -70.5483 -37.3309 -37.3309 -37.3249 -37.3200 -37.3145 -37.3145
     5.3410   5.3410   5.3963   7.1322   7.5749   7.5749

          k = 0.3333 0.5774 0.3088 (  1320 PWs)   bands (ev):

   -70.5483 -70.5483 -37.3321 -37.3321 -37.3225 -37.3225 -37.3133 -37.3133
     5.6447   5.6447   6.1191   6.1193   6.9996   6.9996

     Writing output data file pwscf.save

     init_run     :      0.66s CPU      0.52s WALL (       1 calls)
     electrons    :     27.48s CPU     12.73s WALL (       1 calls)

     Called by init_run:
     wfcinit      :      0.00s CPU      0.00s WALL (       1 calls)
     wfcinit:atom :      0.00s CPU      0.03s WALL (      50 calls)
     wfcinit:wfcr :      1.95s CPU      0.93s WALL (      50 calls)
     potinit      :      0.03s CPU      0.03s WALL (       1 calls)

     Called by electrons:
     c_bands      :     27.48s CPU     12.73s WALL (       1 calls)
     v_of_rho     :      0.03s CPU      0.03s WALL (       1 calls)
     v_h          :      0.00s CPU      0.00s WALL (       1 calls)
     v_xc         :      0.03s CPU      0.03s WALL (       1 calls)
     newd         :      0.02s CPU      0.10s WALL (       1 calls)

     Called by c_bands:
     init_us_2    :      0.25s CPU      0.06s WALL (      50 calls)
     cegterg      :     24.61s CPU     11.33s WALL (      63 calls)

     Called by sum_band:

     Called by *egterg:
     h_psi        :     16.55s CPU      7.78s WALL (     945 calls)
     s_psi        :      1.20s CPU      0.44s WALL (     945 calls)
     g_psi        :      0.14s CPU      0.09s WALL (     832 calls)
     cdiaghg      :      3.72s CPU      1.88s WALL (     882 calls)
     cegterg:over :      1.70s CPU      0.75s WALL (     832 calls)
     cegterg:upda :      1.73s CPU      0.64s WALL (     832 calls)
     cegterg:last :      0.83s CPU      0.36s WALL (     156 calls)

     Called by h_psi:
     h_psi:pot    :     16.48s CPU      7.71s WALL (     945 calls)
     h_psi:calbec :      1.08s CPU      0.49s WALL (     945 calls)
     vloc_psi     :     14.17s CPU      6.71s WALL (     945 calls)
     add_vuspsi   :      1.17s CPU      0.48s WALL (     945 calls)

     General routines
     calbec       :      1.08s CPU      0.48s WALL (     945 calls)
     fft          :      0.00s CPU      0.01s WALL (      12 calls)
     ffts         :      0.00s CPU      0.00s WALL (       1 calls)
     fftw         :     12.58s CPU      5.70s WALL (   12922 calls)
     interpolate  :      0.00s CPU      0.00s WALL (       1 calls)
     davcio       :      0.00s CPU      0.01s WALL (      50 calls)

     Parallel routines
     fft_scatter  :      1.06s CPU      0.54s WALL (   12935 calls)

     PWSCF        :    28.70s CPU        13.69s WALL


   This run was terminated on:   9: 0:15  26Feb2021            

=------------------------------------------------------------------------------=
   JOB DONE.
=------------------------------------------------------------------------------=
