
     Program PWSCF v.6.0 (svn rev. 13079) starts on 25Feb2021 at 13:47: 8 

     This program is part of the open-source Quantum ESPRESSO suite
     for quantum simulation of materials; please cite
         "P. Giannozzi et al., J. Phys.:Condens. Matter 21 395502 (2009);
          URL http://www.quantum-espresso.org", 
     in publications or presentations arising from this work. More details at
     http://www.quantum-espresso.org/quote

     Parallel version (MPI), running on     1 processors
     Reading input from espresso.pwi
Warning: card &IONS ignored
Warning: card / ignored
Warning: card &CELL ignored
Warning: card / ignored

     Current dimensions of program PWSCF are:
     Max number of different atomic species (ntypx) = 10
     Max number of k-points (npk) =  40000
     Max angular momentum in pseudopotentials (lmaxx) =  3
     Message from routine input:
     WARNING: "startingwfc" set to atomic+random may spoil restart

     Atomic positions and unit cell read from directory:
     ./pwscf.save/


     IMPORTANT: XC functional enforced from input :
     Exchange-correlation      = PBE ( 1  4  3  4 0 0)
     Any further DFT definition will be discarded
     Please, verify this is what you really want


     Subspace diagonalization in iterative solution of the eigenvalue problem:
     a serial algorithm will be used


     G-vector sticks info
     --------------------
     sticks:   dense  smooth     PW     G-vecs:    dense   smooth      PW
     Sum         333     265     91                 3805     2731     555



     bravais-lattice index     =            0
     lattice parameter (alat)  =       4.6920  a.u.
     unit-cell volume          =      79.5151 (a.u.)^3
     number of atoms/cell      =            1
     number of atomic types    =            1
     number of electrons       =        16.00
     number of Kohn-Sham states=           12
     kinetic-energy cutoff     =      40.0000  Ry
     charge density cutoff     =     200.0000  Ry
     Exchange-correlation      = PBE ( 1  4  3  4 0 0)

     celldm(1)=   4.691991  celldm(2)=   0.000000  celldm(3)=   0.000000
     celldm(4)=   0.000000  celldm(5)=   0.000000  celldm(6)=   0.000000

     crystal axes: (cart. coord. in units of alat)
               a(1) = (  -0.577350   0.577350   0.577350 )  
               a(2) = (   0.577350  -0.577350   0.577350 )  
               a(3) = (   0.577350   0.577350  -0.577350 )  

     reciprocal axes: (cart. coord. in units 2 pi/alat)
               b(1) = (  0.000000  0.866025  0.866025 )  
               b(2) = (  0.866025  0.000000  0.866025 )  
               b(3) = (  0.866025  0.866025  0.000000 )  


     PseudoPot. # 1 for Fe read from file:
     /home/inukai/tango/tests/1element/qe_fit_v2_Fe/../pseudo/fe_pbe_v1.5.uspp.F.UPF
     MD5 check sum: a130daea23fe5165f5d574ae7f82ed95
     Pseudo is Ultrasoft + core correction, Zval = 16.0
     Generated by new atomic code, or converted to UPF format
     Using radial grid of  861 points,  6 beta functions with: 
                l(1) =   0
                l(2) =   0
                l(3) =   1
                l(4) =   1
                l(5) =   2
                l(6) =   2
     Q(r) pseudized with  8 coefficients,  rinner =    1.000   1.000   1.000
                                                       1.000   1.000

     atomic species   valence    mass     pseudopotential
        Fe            16.00    55.84500     Fe( 1.00)

     48 Sym. Ops., with inversion, found


                                    s                        frac. trans.

      isym =  1     identity                                     

 cryst.   s( 1) = (     1          0          0      )
                  (     0          1          0      )
                  (     0          0          1      )

 cart.    s( 1) = (  1.0000000  0.0000000  0.0000000 )
                  (  0.0000000  1.0000000  0.0000000 )
                  (  0.0000000  0.0000000  1.0000000 )


      isym =  2     180 deg rotation - cart. axis [0,0,1]        

 cryst.   s( 2) = (     0          1          0      )
                  (     1          0          0      )
                  (    -1         -1         -1      )

 cart.    s( 2) = ( -1.0000000  0.0000000  0.0000000 )
                  (  0.0000000 -1.0000000  0.0000000 )
                  (  0.0000000  0.0000000  1.0000000 )


      isym =  3     180 deg rotation - cart. axis [0,1,0]        

 cryst.   s( 3) = (     0          0          1      )
                  (    -1         -1         -1      )
                  (     1          0          0      )

 cart.    s( 3) = ( -1.0000000  0.0000000  0.0000000 )
                  (  0.0000000  1.0000000  0.0000000 )
                  (  0.0000000  0.0000000 -1.0000000 )


      isym =  4     180 deg rotation - cart. axis [1,0,0]        

 cryst.   s( 4) = (    -1         -1         -1      )
                  (     0          0          1      )
                  (     0          1          0      )

 cart.    s( 4) = (  1.0000000  0.0000000  0.0000000 )
                  (  0.0000000 -1.0000000  0.0000000 )
                  (  0.0000000  0.0000000 -1.0000000 )


      isym =  5     180 deg rotation - cart. axis [1,1,0]        

 cryst.   s( 5) = (    -1          0          0      )
                  (     0         -1          0      )
                  (     1          1          1      )

 cart.    s( 5) = (  0.0000000  1.0000000  0.0000000 )
                  (  1.0000000  0.0000000  0.0000000 )
                  (  0.0000000  0.0000000 -1.0000000 )


      isym =  6     180 deg rotation - cart. axis [1,-1,0]       

 cryst.   s( 6) = (     0         -1          0      )
                  (    -1          0          0      )
                  (     0          0         -1      )

 cart.    s( 6) = (  0.0000000 -1.0000000  0.0000000 )
                  ( -1.0000000  0.0000000  0.0000000 )
                  (  0.0000000  0.0000000 -1.0000000 )


      isym =  7      90 deg rotation - cart. axis [0,0,-1]       

 cryst.   s( 7) = (     1          1          1      )
                  (     0          0         -1      )
                  (    -1          0          0      )

 cart.    s( 7) = (  0.0000000  1.0000000  0.0000000 )
                  ( -1.0000000  0.0000000  0.0000000 )
                  (  0.0000000  0.0000000  1.0000000 )


      isym =  8      90 deg rotation - cart. axis [0,0,1]        

 cryst.   s( 8) = (     0          0         -1      )
                  (     1          1          1      )
                  (     0         -1          0      )

 cart.    s( 8) = (  0.0000000 -1.0000000  0.0000000 )
                  (  1.0000000  0.0000000  0.0000000 )
                  (  0.0000000  0.0000000  1.0000000 )


      isym =  9     180 deg rotation - cart. axis [1,0,1]        

 cryst.   s( 9) = (    -1          0          0      )
                  (     1          1          1      )
                  (     0          0         -1      )

 cart.    s( 9) = (  0.0000000  0.0000000  1.0000000 )
                  (  0.0000000 -1.0000000  0.0000000 )
                  (  1.0000000  0.0000000  0.0000000 )


      isym = 10     180 deg rotation - cart. axis [-1,0,1]       

 cryst.   s(10) = (     0          0         -1      )
                  (     0         -1          0      )
                  (    -1          0          0      )

 cart.    s(10) = (  0.0000000  0.0000000 -1.0000000 )
                  (  0.0000000 -1.0000000  0.0000000 )
                  ( -1.0000000  0.0000000  0.0000000 )


      isym = 11      90 deg rotation - cart. axis [0,1,0]        

 cryst.   s(11) = (     1          1          1      )
                  (    -1          0          0      )
                  (     0         -1          0      )

 cart.    s(11) = (  0.0000000  0.0000000  1.0000000 )
                  (  0.0000000  1.0000000  0.0000000 )
                  ( -1.0000000  0.0000000  0.0000000 )


      isym = 12      90 deg rotation - cart. axis [0,-1,0]       

 cryst.   s(12) = (     0         -1          0      )
                  (     0          0         -1      )
                  (     1          1          1      )

 cart.    s(12) = (  0.0000000  0.0000000 -1.0000000 )
                  (  0.0000000  1.0000000  0.0000000 )
                  (  1.0000000  0.0000000  0.0000000 )


      isym = 13     180 deg rotation - cart. axis [0,1,1]        

 cryst.   s(13) = (     1          1          1      )
                  (     0         -1          0      )
                  (     0          0         -1      )

 cart.    s(13) = ( -1.0000000  0.0000000  0.0000000 )
                  (  0.0000000  0.0000000  1.0000000 )
                  (  0.0000000  1.0000000  0.0000000 )


      isym = 14     180 deg rotation - cart. axis [0,1,-1]       

 cryst.   s(14) = (    -1          0          0      )
                  (     0          0         -1      )
                  (     0         -1          0      )

 cart.    s(14) = ( -1.0000000  0.0000000  0.0000000 )
                  (  0.0000000  0.0000000 -1.0000000 )
                  (  0.0000000 -1.0000000  0.0000000 )


      isym = 15      90 deg rotation - cart. axis [-1,0,0]       

 cryst.   s(15) = (     0         -1          0      )
                  (     1          1          1      )
                  (    -1          0          0      )

 cart.    s(15) = (  1.0000000  0.0000000  0.0000000 )
                  (  0.0000000  0.0000000  1.0000000 )
                  (  0.0000000 -1.0000000  0.0000000 )


      isym = 16      90 deg rotation - cart. axis [1,0,0]        

 cryst.   s(16) = (     0          0         -1      )
                  (    -1          0          0      )
                  (     1          1          1      )

 cart.    s(16) = (  1.0000000  0.0000000  0.0000000 )
                  (  0.0000000  0.0000000 -1.0000000 )
                  (  0.0000000  1.0000000  0.0000000 )


      isym = 17     120 deg rotation - cart. axis [-1,-1,-1]     

 cryst.   s(17) = (     0          0          1      )
                  (     1          0          0      )
                  (     0          1          0      )

 cart.    s(17) = (  0.0000000  1.0000000  0.0000000 )
                  (  0.0000000  0.0000000  1.0000000 )
                  (  1.0000000  0.0000000  0.0000000 )


      isym = 18     120 deg rotation - cart. axis [-1,1,1]       

 cryst.   s(18) = (     1          0          0      )
                  (     0          0          1      )
                  (    -1         -1         -1      )

 cart.    s(18) = (  0.0000000 -1.0000000  0.0000000 )
                  (  0.0000000  0.0000000  1.0000000 )
                  ( -1.0000000  0.0000000  0.0000000 )


      isym = 19     120 deg rotation - cart. axis [1,1,-1]       

 cryst.   s(19) = (     0          1          0      )
                  (    -1         -1         -1      )
                  (     0          0          1      )

 cart.    s(19) = (  0.0000000  1.0000000  0.0000000 )
                  (  0.0000000  0.0000000 -1.0000000 )
                  ( -1.0000000  0.0000000  0.0000000 )


      isym = 20     120 deg rotation - cart. axis [1,-1,1]       

 cryst.   s(20) = (    -1         -1         -1      )
                  (     0          1          0      )
                  (     1          0          0      )

 cart.    s(20) = (  0.0000000 -1.0000000  0.0000000 )
                  (  0.0000000  0.0000000 -1.0000000 )
                  (  1.0000000  0.0000000  0.0000000 )


      isym = 21     120 deg rotation - cart. axis [1,1,1]        

 cryst.   s(21) = (     0          1          0      )
                  (     0          0          1      )
                  (     1          0          0      )

 cart.    s(21) = (  0.0000000  0.0000000  1.0000000 )
                  (  1.0000000  0.0000000  0.0000000 )
                  (  0.0000000  1.0000000  0.0000000 )


      isym = 22     120 deg rotation - cart. axis [-1,1,-1]      

 cryst.   s(22) = (     0          0          1      )
                  (     0          1          0      )
                  (    -1         -1         -1      )

 cart.    s(22) = (  0.0000000  0.0000000  1.0000000 )
                  ( -1.0000000  0.0000000  0.0000000 )
                  (  0.0000000 -1.0000000  0.0000000 )


      isym = 23     120 deg rotation - cart. axis [1,-1,-1]      

 cryst.   s(23) = (     1          0          0      )
                  (    -1         -1         -1      )
                  (     0          1          0      )

 cart.    s(23) = (  0.0000000  0.0000000 -1.0000000 )
                  ( -1.0000000  0.0000000  0.0000000 )
                  (  0.0000000  1.0000000  0.0000000 )


      isym = 24     120 deg rotation - cart. axis [-1,-1,1]      

 cryst.   s(24) = (    -1         -1         -1      )
                  (     1          0          0      )
                  (     0          0          1      )

 cart.    s(24) = (  0.0000000  0.0000000 -1.0000000 )
                  (  1.0000000  0.0000000  0.0000000 )
                  (  0.0000000 -1.0000000  0.0000000 )


      isym = 25     inversion                                    

 cryst.   s(25) = (    -1          0          0      )
                  (     0         -1          0      )
                  (     0          0         -1      )

 cart.    s(25) = ( -1.0000000  0.0000000  0.0000000 )
                  (  0.0000000 -1.0000000  0.0000000 )
                  (  0.0000000  0.0000000 -1.0000000 )


      isym = 26     inv. 180 deg rotation - cart. axis [0,0,1]   

 cryst.   s(26) = (     0         -1          0      )
                  (    -1          0          0      )
                  (     1          1          1      )

 cart.    s(26) = (  1.0000000  0.0000000  0.0000000 )
                  (  0.0000000  1.0000000  0.0000000 )
                  (  0.0000000  0.0000000 -1.0000000 )


      isym = 27     inv. 180 deg rotation - cart. axis [0,1,0]   

 cryst.   s(27) = (     0          0         -1      )
                  (     1          1          1      )
                  (    -1          0          0      )

 cart.    s(27) = (  1.0000000  0.0000000  0.0000000 )
                  (  0.0000000 -1.0000000  0.0000000 )
                  (  0.0000000  0.0000000  1.0000000 )


      isym = 28     inv. 180 deg rotation - cart. axis [1,0,0]   

 cryst.   s(28) = (     1          1          1      )
                  (     0          0         -1      )
                  (     0         -1          0      )

 cart.    s(28) = ( -1.0000000  0.0000000  0.0000000 )
                  (  0.0000000  1.0000000  0.0000000 )
                  (  0.0000000  0.0000000  1.0000000 )


      isym = 29     inv. 180 deg rotation - cart. axis [1,1,0]   

 cryst.   s(29) = (     1          0          0      )
                  (     0          1          0      )
                  (    -1         -1         -1      )

 cart.    s(29) = (  0.0000000 -1.0000000  0.0000000 )
                  ( -1.0000000  0.0000000  0.0000000 )
                  (  0.0000000  0.0000000  1.0000000 )


      isym = 30     inv. 180 deg rotation - cart. axis [1,-1,0]  

 cryst.   s(30) = (     0          1          0      )
                  (     1          0          0      )
                  (     0          0          1      )

 cart.    s(30) = (  0.0000000  1.0000000  0.0000000 )
                  (  1.0000000  0.0000000  0.0000000 )
                  (  0.0000000  0.0000000  1.0000000 )


      isym = 31     inv.  90 deg rotation - cart. axis [0,0,-1]  

 cryst.   s(31) = (    -1         -1         -1      )
                  (     0          0          1      )
                  (     1          0          0      )

 cart.    s(31) = (  0.0000000 -1.0000000  0.0000000 )
                  (  1.0000000  0.0000000  0.0000000 )
                  (  0.0000000  0.0000000 -1.0000000 )


      isym = 32     inv.  90 deg rotation - cart. axis [0,0,1]   

 cryst.   s(32) = (     0          0          1      )
                  (    -1         -1         -1      )
                  (     0          1          0      )

 cart.    s(32) = (  0.0000000  1.0000000  0.0000000 )
                  ( -1.0000000  0.0000000  0.0000000 )
                  (  0.0000000  0.0000000 -1.0000000 )


      isym = 33     inv. 180 deg rotation - cart. axis [1,0,1]   

 cryst.   s(33) = (     1          0          0      )
                  (    -1         -1         -1      )
                  (     0          0          1      )

 cart.    s(33) = (  0.0000000  0.0000000 -1.0000000 )
                  (  0.0000000  1.0000000  0.0000000 )
                  ( -1.0000000  0.0000000  0.0000000 )


      isym = 34     inv. 180 deg rotation - cart. axis [-1,0,1]  

 cryst.   s(34) = (     0          0          1      )
                  (     0          1          0      )
                  (     1          0          0      )

 cart.    s(34) = (  0.0000000  0.0000000  1.0000000 )
                  (  0.0000000  1.0000000  0.0000000 )
                  (  1.0000000  0.0000000  0.0000000 )


      isym = 35     inv.  90 deg rotation - cart. axis [0,1,0]   

 cryst.   s(35) = (    -1         -1         -1      )
                  (     1          0          0      )
                  (     0          1          0      )

 cart.    s(35) = (  0.0000000  0.0000000 -1.0000000 )
                  (  0.0000000 -1.0000000  0.0000000 )
                  (  1.0000000  0.0000000  0.0000000 )


      isym = 36     inv.  90 deg rotation - cart. axis [0,-1,0]  

 cryst.   s(36) = (     0          1          0      )
                  (     0          0          1      )
                  (    -1         -1         -1      )

 cart.    s(36) = (  0.0000000  0.0000000  1.0000000 )
                  (  0.0000000 -1.0000000  0.0000000 )
                  ( -1.0000000  0.0000000  0.0000000 )


      isym = 37     inv. 180 deg rotation - cart. axis [0,1,1]   

 cryst.   s(37) = (    -1         -1         -1      )
                  (     0          1          0      )
                  (     0          0          1      )

 cart.    s(37) = (  1.0000000  0.0000000  0.0000000 )
                  (  0.0000000  0.0000000 -1.0000000 )
                  (  0.0000000 -1.0000000  0.0000000 )


      isym = 38     inv. 180 deg rotation - cart. axis [0,1,-1]  

 cryst.   s(38) = (     1          0          0      )
                  (     0          0          1      )
                  (     0          1          0      )

 cart.    s(38) = (  1.0000000  0.0000000  0.0000000 )
                  (  0.0000000  0.0000000  1.0000000 )
                  (  0.0000000  1.0000000  0.0000000 )


      isym = 39     inv.  90 deg rotation - cart. axis [-1,0,0]  

 cryst.   s(39) = (     0          1          0      )
                  (    -1         -1         -1      )
                  (     1          0          0      )

 cart.    s(39) = ( -1.0000000  0.0000000  0.0000000 )
                  (  0.0000000  0.0000000 -1.0000000 )
                  (  0.0000000  1.0000000  0.0000000 )


      isym = 40     inv.  90 deg rotation - cart. axis [1,0,0]   

 cryst.   s(40) = (     0          0          1      )
                  (     1          0          0      )
                  (    -1         -1         -1      )

 cart.    s(40) = ( -1.0000000  0.0000000  0.0000000 )
                  (  0.0000000  0.0000000  1.0000000 )
                  (  0.0000000 -1.0000000  0.0000000 )


      isym = 41     inv. 120 deg rotation - cart. axis [-1,-1,-1]

 cryst.   s(41) = (     0          0         -1      )
                  (    -1          0          0      )
                  (     0         -1          0      )

 cart.    s(41) = (  0.0000000 -1.0000000  0.0000000 )
                  (  0.0000000  0.0000000 -1.0000000 )
                  ( -1.0000000  0.0000000  0.0000000 )


      isym = 42     inv. 120 deg rotation - cart. axis [-1,1,1]  

 cryst.   s(42) = (    -1          0          0      )
                  (     0          0         -1      )
                  (     1          1          1      )

 cart.    s(42) = (  0.0000000  1.0000000  0.0000000 )
                  (  0.0000000  0.0000000 -1.0000000 )
                  (  1.0000000  0.0000000  0.0000000 )


      isym = 43     inv. 120 deg rotation - cart. axis [1,1,-1]  

 cryst.   s(43) = (     0         -1          0      )
                  (     1          1          1      )
                  (     0          0         -1      )

 cart.    s(43) = (  0.0000000 -1.0000000  0.0000000 )
                  (  0.0000000  0.0000000  1.0000000 )
                  (  1.0000000  0.0000000  0.0000000 )


      isym = 44     inv. 120 deg rotation - cart. axis [1,-1,1]  

 cryst.   s(44) = (     1          1          1      )
                  (     0         -1          0      )
                  (    -1          0          0      )

 cart.    s(44) = (  0.0000000  1.0000000  0.0000000 )
                  (  0.0000000  0.0000000  1.0000000 )
                  ( -1.0000000  0.0000000  0.0000000 )


      isym = 45     inv. 120 deg rotation - cart. axis [1,1,1]   

 cryst.   s(45) = (     0         -1          0      )
                  (     0          0         -1      )
                  (    -1          0          0      )

 cart.    s(45) = (  0.0000000  0.0000000 -1.0000000 )
                  ( -1.0000000  0.0000000  0.0000000 )
                  (  0.0000000 -1.0000000  0.0000000 )


      isym = 46     inv. 120 deg rotation - cart. axis [-1,1,-1] 

 cryst.   s(46) = (     0          0         -1      )
                  (     0         -1          0      )
                  (     1          1          1      )

 cart.    s(46) = (  0.0000000  0.0000000 -1.0000000 )
                  (  1.0000000  0.0000000  0.0000000 )
                  (  0.0000000  1.0000000  0.0000000 )


      isym = 47     inv. 120 deg rotation - cart. axis [1,-1,-1] 

 cryst.   s(47) = (    -1          0          0      )
                  (     1          1          1      )
                  (     0         -1          0      )

 cart.    s(47) = (  0.0000000  0.0000000  1.0000000 )
                  (  1.0000000  0.0000000  0.0000000 )
                  (  0.0000000 -1.0000000  0.0000000 )


      isym = 48     inv. 120 deg rotation - cart. axis [-1,-1,1] 

 cryst.   s(48) = (     1          1          1      )
                  (    -1          0          0      )
                  (     0          0         -1      )

 cart.    s(48) = (  0.0000000  0.0000000  1.0000000 )
                  ( -1.0000000  0.0000000  0.0000000 )
                  (  0.0000000  1.0000000  0.0000000 )


   Cartesian axes

     site n.     atom                  positions (alat units)
         1           Fe  tau(   1) = (   0.0000000   0.0000000   0.0000000  )

   Crystallographic axes

     site n.     atom                  positions (cryst. coord.)
         1           Fe  tau(   1) = (  0.0000000  0.0000000  0.0000000  )

     number of k points=    50  gaussian smearing, width (Ry)=  0.0010
                       cart. coord. in units 2pi/alat
        k(    1) = (   0.0000000   0.0000000   0.0000000), wk =   0.0400000
        k(    2) = (   0.0000000   0.0618590   0.0000000), wk =   0.0400000
        k(    3) = (   0.0000000   0.1237179   0.0000000), wk =   0.0400000
        k(    4) = (   0.0000000   0.1855769   0.0000000), wk =   0.0400000
        k(    5) = (   0.0000000   0.2474358   0.0000000), wk =   0.0400000
        k(    6) = (   0.0000000   0.3092948   0.0000000), wk =   0.0400000
        k(    7) = (   0.0000000   0.3711537   0.0000000), wk =   0.0400000
        k(    8) = (   0.0000000   0.4330127   0.0000000), wk =   0.0400000
        k(    9) = (   0.0000000   0.4948717   0.0000000), wk =   0.0400000
        k(   10) = (   0.0000000   0.5567306   0.0000000), wk =   0.0400000
        k(   11) = (   0.0000000   0.6185896   0.0000000), wk =   0.0400000
        k(   12) = (   0.0000000   0.6804485   0.0000000), wk =   0.0400000
        k(   13) = (   0.0000000   0.7423075   0.0000000), wk =   0.0400000
        k(   14) = (   0.0000000   0.8041664   0.0000000), wk =   0.0400000
        k(   15) = (   0.0000000   0.8660254   0.0000000), wk =   0.0400000
        k(   16) = (   0.0433013   0.8227241   0.0000000), wk =   0.0400000
        k(   17) = (   0.0866025   0.7794229   0.0000000), wk =   0.0400000
        k(   18) = (   0.1299038   0.7361216   0.0000000), wk =   0.0400000
        k(   19) = (   0.1732051   0.6928203   0.0000000), wk =   0.0400000
        k(   20) = (   0.2165064   0.6495191   0.0000000), wk =   0.0400000
        k(   21) = (   0.2598076   0.6062178   0.0000000), wk =   0.0400000
        k(   22) = (   0.3031089   0.5629165   0.0000000), wk =   0.0400000
        k(   23) = (   0.3464102   0.5196152   0.0000000), wk =   0.0400000
        k(   24) = (   0.3897114   0.4763140   0.0000000), wk =   0.0400000
        k(   25) = (   0.4330127   0.4330127   0.0000000), wk =   0.0400000
        k(   26) = (   0.3936479   0.3936479   0.0000000), wk =   0.0400000
        k(   27) = (   0.3542831   0.3542831   0.0000000), wk =   0.0400000
        k(   28) = (   0.3149183   0.3149183   0.0000000), wk =   0.0400000
        k(   29) = (   0.2755535   0.2755535   0.0000000), wk =   0.0400000
        k(   30) = (   0.2361887   0.2361887   0.0000000), wk =   0.0400000
        k(   31) = (   0.1968240   0.1968240   0.0000000), wk =   0.0400000
        k(   32) = (   0.1574592   0.1574592   0.0000000), wk =   0.0400000
        k(   33) = (   0.1180944   0.1180944   0.0000000), wk =   0.0400000
        k(   34) = (   0.0787296   0.0787296   0.0000000), wk =   0.0400000
        k(   35) = (   0.0393648   0.0393648   0.0000000), wk =   0.0400000
        k(   36) = (   0.0000000   0.0000000   0.0000000), wk =   0.0400000
        k(   37) = (   0.0309295   0.0309295   0.0309295), wk =   0.0400000
        k(   38) = (   0.0618590   0.0618590   0.0618590), wk =   0.0400000
        k(   39) = (   0.0927884   0.0927884   0.0927884), wk =   0.0400000
        k(   40) = (   0.1237179   0.1237179   0.1237179), wk =   0.0400000
        k(   41) = (   0.1546474   0.1546474   0.1546474), wk =   0.0400000
        k(   42) = (   0.1855769   0.1855769   0.1855769), wk =   0.0400000
        k(   43) = (   0.2165064   0.2165064   0.2165064), wk =   0.0400000
        k(   44) = (   0.2474358   0.2474358   0.2474358), wk =   0.0400000
        k(   45) = (   0.2783653   0.2783653   0.2783653), wk =   0.0400000
        k(   46) = (   0.3092948   0.3092948   0.3092948), wk =   0.0400000
        k(   47) = (   0.3402243   0.3402243   0.3402243), wk =   0.0400000
        k(   48) = (   0.3711537   0.3711537   0.3711537), wk =   0.0400000
        k(   49) = (   0.4020832   0.4020832   0.4020832), wk =   0.0400000
        k(   50) = (   0.4330127   0.4330127   0.4330127), wk =   0.0400000

                       cryst. coord.
        k(    1) = (   0.0000000   0.0000000   0.0000000), wk =   0.0400000
        k(    2) = (   0.0357143  -0.0357143   0.0357143), wk =   0.0400000
        k(    3) = (   0.0714286  -0.0714286   0.0714286), wk =   0.0400000
        k(    4) = (   0.1071429  -0.1071429   0.1071429), wk =   0.0400000
        k(    5) = (   0.1428571  -0.1428571   0.1428571), wk =   0.0400000
        k(    6) = (   0.1785714  -0.1785714   0.1785714), wk =   0.0400000
        k(    7) = (   0.2142857  -0.2142857   0.2142857), wk =   0.0400000
        k(    8) = (   0.2500000  -0.2500000   0.2500000), wk =   0.0400000
        k(    9) = (   0.2857143  -0.2857143   0.2857143), wk =   0.0400000
        k(   10) = (   0.3214286  -0.3214286   0.3214286), wk =   0.0400000
        k(   11) = (   0.3571429  -0.3571429   0.3571429), wk =   0.0400000
        k(   12) = (   0.3928571  -0.3928571   0.3928571), wk =   0.0400000
        k(   13) = (   0.4285714  -0.4285714   0.4285714), wk =   0.0400000
        k(   14) = (   0.4642857  -0.4642857   0.4642857), wk =   0.0400000
        k(   15) = (   0.5000000  -0.5000000   0.5000000), wk =   0.0400000
        k(   16) = (   0.4500000  -0.4500000   0.5000000), wk =   0.0400000
        k(   17) = (   0.4000000  -0.4000000   0.5000000), wk =   0.0400000
        k(   18) = (   0.3500000  -0.3500000   0.5000000), wk =   0.0400000
        k(   19) = (   0.3000000  -0.3000000   0.5000000), wk =   0.0400000
        k(   20) = (   0.2500000  -0.2500000   0.5000000), wk =   0.0400000
        k(   21) = (   0.2000000  -0.2000000   0.5000000), wk =   0.0400000
        k(   22) = (   0.1500000  -0.1500000   0.5000000), wk =   0.0400000
        k(   23) = (   0.1000000  -0.1000000   0.5000000), wk =   0.0400000
        k(   24) = (   0.0500000  -0.0500000   0.5000000), wk =   0.0400000
        k(   25) = (   0.0000000   0.0000000   0.5000000), wk =   0.0400000
        k(   26) = (   0.0000000   0.0000000   0.4545455), wk =   0.0400000
        k(   27) = (   0.0000000   0.0000000   0.4090909), wk =   0.0400000
        k(   28) = (   0.0000000   0.0000000   0.3636364), wk =   0.0400000
        k(   29) = (   0.0000000   0.0000000   0.3181818), wk =   0.0400000
        k(   30) = (   0.0000000   0.0000000   0.2727273), wk =   0.0400000
        k(   31) = (   0.0000000   0.0000000   0.2272727), wk =   0.0400000
        k(   32) = (   0.0000000   0.0000000   0.1818182), wk =   0.0400000
        k(   33) = (   0.0000000   0.0000000   0.1363636), wk =   0.0400000
        k(   34) = (   0.0000000   0.0000000   0.0909091), wk =   0.0400000
        k(   35) = (   0.0000000   0.0000000   0.0454545), wk =   0.0400000
        k(   36) = (   0.0000000   0.0000000   0.0000000), wk =   0.0400000
        k(   37) = (   0.0178571   0.0178571   0.0178571), wk =   0.0400000
        k(   38) = (   0.0357143   0.0357143   0.0357143), wk =   0.0400000
        k(   39) = (   0.0535714   0.0535714   0.0535714), wk =   0.0400000
        k(   40) = (   0.0714286   0.0714286   0.0714286), wk =   0.0400000
        k(   41) = (   0.0892857   0.0892857   0.0892857), wk =   0.0400000
        k(   42) = (   0.1071429   0.1071429   0.1071429), wk =   0.0400000
        k(   43) = (   0.1250000   0.1250000   0.1250000), wk =   0.0400000
        k(   44) = (   0.1428571   0.1428571   0.1428571), wk =   0.0400000
        k(   45) = (   0.1607143   0.1607143   0.1607143), wk =   0.0400000
        k(   46) = (   0.1785714   0.1785714   0.1785714), wk =   0.0400000
        k(   47) = (   0.1964286   0.1964286   0.1964286), wk =   0.0400000
        k(   48) = (   0.2142857   0.2142857   0.2142857), wk =   0.0400000
        k(   49) = (   0.2321429   0.2321429   0.2321429), wk =   0.0400000
        k(   50) = (   0.2500000   0.2500000   0.2500000), wk =   0.0400000

     Dense  grid:     3805 G-vectors     FFT dimensions: (  24,  24,  24)

     Smooth grid:     2731 G-vectors     FFT dimensions: (  20,  20,  20)

     Estimated max dynamical RAM per process >       5.21Mb

     Check: negative/imaginary core charge=   -0.000074    0.000000

     The potential is recalculated from file :
     ./pwscf.save/charge-density.dat

     Starting wfc are   13 randomized atomic wfcs

     Band Structure Calculation
     Davidson diagonalization with overlap

     Computing kpt #:     1
     total cpu time spent up to now is        0.6 secs

     Computing kpt #:     2
     total cpu time spent up to now is        0.7 secs

     Computing kpt #:     3
     total cpu time spent up to now is        0.7 secs

     Computing kpt #:     4
     total cpu time spent up to now is        0.8 secs

     Computing kpt #:     5
     total cpu time spent up to now is        0.9 secs

     Computing kpt #:     6
     total cpu time spent up to now is        0.9 secs

     Computing kpt #:     7
     total cpu time spent up to now is        1.0 secs

     Computing kpt #:     8
     total cpu time spent up to now is        1.1 secs

     Computing kpt #:     9
     total cpu time spent up to now is        1.1 secs

     Computing kpt #:    10
     total cpu time spent up to now is        1.2 secs

     Computing kpt #:    11
     total cpu time spent up to now is        1.2 secs

     Computing kpt #:    12
     total cpu time spent up to now is        1.3 secs

     Computing kpt #:    13
     total cpu time spent up to now is        1.3 secs

     Computing kpt #:    14
     total cpu time spent up to now is        1.4 secs

     Computing kpt #:    15
     total cpu time spent up to now is        1.4 secs

     Computing kpt #:    16
     total cpu time spent up to now is        1.5 secs

     Computing kpt #:    17
     total cpu time spent up to now is        1.5 secs

     Computing kpt #:    18
     total cpu time spent up to now is        1.6 secs

     Computing kpt #:    19
     total cpu time spent up to now is        1.6 secs

     Computing kpt #:    20
     total cpu time spent up to now is        1.7 secs

     Computing kpt #:    21
     total cpu time spent up to now is        1.7 secs

     Computing kpt #:    22
     total cpu time spent up to now is        1.8 secs

     Computing kpt #:    23
     total cpu time spent up to now is        1.9 secs

     Computing kpt #:    24
     total cpu time spent up to now is        1.9 secs

     Computing kpt #:    25
     total cpu time spent up to now is        2.0 secs

     Computing kpt #:    26
     total cpu time spent up to now is        2.1 secs

     Computing kpt #:    27
     total cpu time spent up to now is        2.2 secs

     Computing kpt #:    28
     total cpu time spent up to now is        2.2 secs

     Computing kpt #:    29
     total cpu time spent up to now is        2.3 secs

     Computing kpt #:    30
     total cpu time spent up to now is        2.4 secs

     Computing kpt #:    31
     total cpu time spent up to now is        2.5 secs

     Computing kpt #:    32
     total cpu time spent up to now is        2.5 secs

     Computing kpt #:    33
     total cpu time spent up to now is        2.6 secs

     Computing kpt #:    34
     total cpu time spent up to now is        2.7 secs

     Computing kpt #:    35
     total cpu time spent up to now is        2.8 secs

     Computing kpt #:    36
     total cpu time spent up to now is        2.9 secs

     Computing kpt #:    37
     total cpu time spent up to now is        2.9 secs

     Computing kpt #:    38
     total cpu time spent up to now is        3.0 secs

     Computing kpt #:    39
     total cpu time spent up to now is        3.1 secs

     Computing kpt #:    40
     total cpu time spent up to now is        3.1 secs

     Computing kpt #:    41
     total cpu time spent up to now is        3.2 secs

     Computing kpt #:    42
     total cpu time spent up to now is        3.3 secs

     Computing kpt #:    43
     total cpu time spent up to now is        3.3 secs

     Computing kpt #:    44
     total cpu time spent up to now is        3.4 secs

     Computing kpt #:    45
     total cpu time spent up to now is        3.5 secs

     Computing kpt #:    46
     total cpu time spent up to now is        3.5 secs

     Computing kpt #:    47
     total cpu time spent up to now is        3.6 secs

     Computing kpt #:    48
     total cpu time spent up to now is        3.6 secs

     Computing kpt #:    49
     total cpu time spent up to now is        3.7 secs

     Computing kpt #:    50
     total cpu time spent up to now is        3.8 secs

     ethr =  6.25E-10,  avg # of iterations = 12.2

     total cpu time spent up to now is        3.8 secs

     End of band structure calculation

          k = 0.0000 0.0000 0.0000 (   321 PWs)   bands (ev):

   -69.5594 -35.3970 -35.3970 -35.3970   9.1534  15.9755  15.9755  15.9755
    17.4822  17.4822  41.3436  41.3436

          k = 0.0000 0.0619 0.0000 (   337 PWs)   bands (ev):

   -69.5576 -35.4034 -35.4002 -35.4002   9.2569  15.9731  15.9731  16.0044
    17.4316  17.5018  40.7354  41.2860

          k = 0.0000 0.1237 0.0000 (   345 PWs)   bands (ev):

   -69.5525 -35.4219 -35.4098 -35.4098   9.5631  15.9695  15.9695  16.0896
    17.2823  17.5585  39.5095  40.9822

          k = 0.0000 0.1856 0.0000 (   345 PWs)   bands (ev):

   -69.5444 -35.4503 -35.4253 -35.4253  10.0591  15.9747  15.9747  16.2276
    17.0412  17.6463  38.2336  40.1785

          k = 0.0000 0.2474 0.0000 (   345 PWs)   bands (ev):

   -69.5338 -35.4853 -35.4461 -35.4461  10.7199  16.0031  16.0031  16.4124
    16.7200  17.7608  37.0819  38.8941

          k = 0.0000 0.3093 0.0000 (   349 PWs)   bands (ev):

   -69.5213 -35.5231 -35.4712 -35.4712  11.5034  16.0702  16.0702  16.3357
    16.6358  17.9087  36.0992  37.3668

          k = 0.0000 0.3712 0.0000 (   345 PWs)   bands (ev):

   -69.5079 -35.5602 -35.4996 -35.4996  12.3371  15.9089  16.1903  16.1903
    16.8875  18.1268  35.2896  35.7646

          k = 0.0000 0.4330 0.0000 (   341 PWs)   bands (ev):

   -69.4941 -35.5935 -35.5299 -35.5299  13.1044  15.4631  16.3737  16.3737
    17.1555  18.5044  34.1723  34.1723

          k = 0.0000 0.4949 0.0000 (   334 PWs)   bands (ev):

   -69.4808 -35.6209 -35.5606 -35.5606  13.6599  15.0220  16.6247  16.6247
    17.4266  19.1742  32.6380  32.6380

          k = 0.0000 0.5567 0.0000 (   338 PWs)   bands (ev):

   -69.4686 -35.6415 -35.5901 -35.5901  13.9221  14.6085  16.9395  16.9395
    17.6870  20.2201  31.1982  31.1982

          k = 0.0000 0.6186 0.0000 (   334 PWs)   bands (ev):

   -69.4579 -35.6555 -35.6168 -35.6168  13.9409  14.2426  17.3035  17.3035
    17.9229  21.6027  29.8896  29.8896

          k = 0.0000 0.6804 0.0000 (   338 PWs)   bands (ev):

   -69.4493 -35.6639 -35.6394 -35.6394  13.8286  13.9410  17.6871  17.6871
    18.1216  23.2091  28.7572  28.7572

          k = 0.0000 0.7423 0.0000 (   350 PWs)   bands (ev):

   -69.4430 -35.6684 -35.6565 -35.6565  13.6838  13.7164  18.0420  18.0420
    18.2720  24.8915  27.8604  27.8604

          k = 0.0000 0.8042 0.0000 (   370 PWs)   bands (ev):

   -69.4391 -35.6703 -35.6672 -35.6672  13.5725  13.5781  18.3013  18.3013
    18.3658  26.3833  27.2732  27.2732

          k = 0.0000 0.8660 0.0000 (   370 PWs)   bands (ev):

   -69.4378 -35.6708 -35.6708 -35.6708  13.5314  13.5314  18.3977  18.3977
    18.3977  27.0670  27.0670  27.0670

          k = 0.0433 0.8227 0.0000 (   370 PWs)   bands (ev):

   -69.4391 -35.6734 -35.6672 -35.6642  13.5738  13.5754  18.2661  18.3018
    18.4042  26.7359  26.8872  27.2684

          k = 0.0866 0.7794 0.0000 (   352 PWs)   bands (ev):

   -69.4428 -35.6809 -35.6570 -35.6450  13.6981  13.7011  17.9096  18.0313
    18.4232  25.9275  26.4686  27.8356

          k = 0.1299 0.7361 0.0000 (   350 PWs)   bands (ev):

   -69.4485 -35.6927 -35.6409 -35.6150  13.8688  13.9137  17.4132  17.6430
    18.4527  24.9068  26.0114  28.6870

          k = 0.1732 0.6928 0.0000 (   342 PWs)   bands (ev):

   -69.4557 -35.7075 -35.6206 -35.5771  14.0261  14.2122  16.8611  17.2398
    18.4902  23.8146  25.6292  29.7435

          k = 0.2165 0.6495 0.0000 (   342 PWs)   bands (ev):

   -69.4637 -35.7238 -35.5981 -35.5348  14.0770  14.5969  16.3175  16.9598
    18.5318  22.7129  25.3515  30.9468

          k = 0.2598 0.6062 0.0000 (   334 PWs)   bands (ev):

   -69.4716 -35.7401 -35.5755 -35.4924  13.9545  15.0677  15.8267  16.9030
    18.5737  21.6317  25.1675  32.2569

          k = 0.3031 0.5629 0.0000 (   332 PWs)   bands (ev):

   -69.4788 -35.7549 -35.5551 -35.4539  13.7069  15.4190  15.6237  17.0335
    18.6116  20.5882  25.0548  33.6417

          k = 0.3464 0.5196 0.0000 (   336 PWs)   bands (ev):

   -69.4845 -35.7665 -35.5388 -35.4232  13.4475  15.1147  16.2629  17.2309
    18.6418  19.5945  24.9917  34.9143

          k = 0.3897 0.4763 0.0000 (   334 PWs)   bands (ev):

   -69.4882 -35.7740 -35.5284 -35.4034  13.2626  14.9271  16.9811  17.3906
    18.6611  18.6612  24.9612  35.0730

          k = 0.4330 0.4330 0.0000 (   340 PWs)   bands (ev):

   -69.4895 -35.7766 -35.5248 -35.3966  13.1966  14.8638  17.4507  17.6871
    17.8831  18.6679  24.9523  35.1339

          k = 0.3936 0.3936 0.0000 (   336 PWs)   bands (ev):

   -69.4909 -35.7690 -35.5222 -35.3966  13.1751  14.8846  17.3872  17.6533
    17.6804  18.6009  25.4015  35.2359

          k = 0.3543 0.3543 0.0000 (   344 PWs)   bands (ev):

   -69.4950 -35.7470 -35.5147 -35.3966  13.0838  14.9459  16.9032  17.4676
    17.6616  18.4093  26.5640  35.5383

          k = 0.3149 0.3149 0.0000 (   342 PWs)   bands (ev):

   -69.5016 -35.7121 -35.5029 -35.3966  12.8465  15.0435  16.2921  17.3943
    17.6338  18.1190  28.1478  36.0305

          k = 0.2756 0.2756 0.0000 (   346 PWs)   bands (ev):

   -69.5099 -35.6672 -35.4876 -35.3967  12.3928  15.1709  15.9032  17.3252
    17.6016  17.7646  29.9697  36.6948

          k = 0.2362 0.2362 0.0000 (   342 PWs)   bands (ev):

   -69.5195 -35.6156 -35.4702 -35.3967  11.7616  15.3191  15.7711  17.2669
    17.3824  17.5693  31.9279  37.5046

          k = 0.1968 0.1968 0.0000 (   346 PWs)   bands (ev):

   -69.5295 -35.5616 -35.4520 -35.3968  11.0737  15.4769  15.7932  17.0055
    17.2367  17.5406  33.9510  38.4196

          k = 0.1575 0.1575 0.0000 (   346 PWs)   bands (ev):

   -69.5390 -35.5095 -35.4345 -35.3968  10.4299  15.6318  15.8654  16.6618
    17.2503  17.5175  35.9697  39.3742

          k = 0.1181 0.1181 0.0000 (   341 PWs)   bands (ev):

   -69.5473 -35.4636 -35.4192 -35.3969   9.8895  15.7705  15.9271  16.3731
    17.3086  17.5007  37.8941  40.2564

          k = 0.0787 0.0787 0.0000 (   341 PWs)   bands (ev):

   -69.5538 -35.4277 -35.4072 -35.3969   9.4858  15.8805  15.9605  16.1559
    17.3890  17.4899  39.5909  40.9105

          k = 0.0394 0.0394 0.0000 (   341 PWs)   bands (ev):

   -69.5580 -35.4048 -35.3996 -35.3970   9.2372  15.9511  15.9729  16.0211
    17.4563  17.4840  40.8493  41.2503

          k = 0.0000 0.0000 0.0000 (   321 PWs)   bands (ev):

   -69.5594 -35.3970 -35.3970 -35.3970   9.1534  15.9755  15.9755  15.9755
    17.4822  17.4822  41.3436  41.3436

          k = 0.0309 0.0309 0.0309 (   339 PWs)   bands (ev):

   -69.5581 -35.4050 -35.3978 -35.3978   9.2310  15.9595  15.9595  16.0248
    17.4711  17.4711  41.0156  41.0156

          k = 0.0619 0.0619 0.0619 (   345 PWs)   bands (ev):

   -69.5542 -35.4283 -35.4003 -35.4003   9.4615  15.9090  15.9090  16.1714
    17.4438  17.4438  40.1134  40.1134

          k = 0.0928 0.0928 0.0928 (   345 PWs)   bands (ev):

   -69.5482 -35.4641 -35.4045 -35.4045   9.8370  15.8200  15.8200  16.4126
    17.4147  17.4147  38.8518  38.8518

          k = 0.1237 0.1237 0.1237 (   345 PWs)   bands (ev):

   -69.5405 -35.5087 -35.4107 -35.4107  10.3445  15.6915  15.6915  16.7439
    17.3989  17.3989  37.4372  37.4372

          k = 0.1546 0.1546 0.1546 (   348 PWs)   bands (ev):

   -69.5317 -35.5572 -35.4190 -35.4190  10.9646  15.5312  15.5312  17.1607
    17.4049  17.4049  35.9908  35.9908

          k = 0.1856 0.1856 0.1856 (   348 PWs)   bands (ev):

   -69.5224 -35.6044 -35.4296 -35.4296  11.6705  15.3543  15.3543  17.4325
    17.4325  17.6601  34.5733  34.5733

          k = 0.2165 0.2165 0.2165 (   345 PWs)   bands (ev):

   -69.5133 -35.6454 -35.4426 -35.4426  12.4249  15.1793  15.1793  17.4759
    17.4759  18.2445  33.2146  33.2146

          k = 0.2474 0.2474 0.2474 (   351 PWs)   bands (ev):

   -69.5050 -35.6761 -35.4580 -35.4580  13.1776  15.0231  15.0231  17.5276
    17.5276  18.9259  31.9300  31.9300

          k = 0.2784 0.2784 0.2784 (   339 PWs)   bands (ev):

   -69.4979 -35.6935 -35.4756 -35.4756  13.8655  14.8988  14.8988  17.5807
    17.5807  19.7284  30.7275  30.7275

          k = 0.3093 0.3093 0.3093 (   339 PWs)   bands (ev):

   -69.4924 -35.6962 -35.4952 -35.4952  14.4218  14.8144  14.8144  17.6295
    17.6295  20.6837  29.6113  29.6113

          k = 0.3402 0.3402 0.3402 (   339 PWs)   bands (ev):

   -69.4886 -35.6841 -35.5163 -35.5163  14.7733  14.7733  14.7966  17.6702
    17.6702  21.8161  28.5844  28.5844

          k = 0.3712 0.3712 0.3712 (   333 PWs)   bands (ev):

   -69.4862 -35.6589 -35.5384 -35.5384  14.7742  14.7742  14.9759  17.7005
    17.7005  23.1281  27.6498  27.6498

          k = 0.4021 0.4021 0.4021 (   336 PWs)   bands (ev):

   -69.4851 -35.6237 -35.5607 -35.5607  14.8116  14.8116  14.9849  17.7191
    17.7191  24.5909  26.8120  26.8120

          k = 0.4330 0.4330 0.4330 (   336 PWs)   bands (ev):

   -69.4849 -35.5825 -35.5825 -35.5825  14.8759  14.8759  14.8759  17.7254
    17.7254  26.0783  26.0783  26.0783

     Writing output data file pwscf.save

     init_run     :      0.50s CPU      0.39s WALL (       1 calls)
     electrons    :      5.83s CPU      3.22s WALL (       1 calls)

     Called by init_run:
     wfcinit      :      0.00s CPU      0.00s WALL (       1 calls)
     wfcinit:atom :      0.05s CPU      0.01s WALL (      50 calls)
     wfcinit:wfcr :      0.45s CPU      0.23s WALL (      50 calls)
     potinit      :      0.02s CPU      0.01s WALL (       1 calls)

     Called by electrons:
     c_bands      :      5.83s CPU      3.22s WALL (       1 calls)
     v_of_rho     :      0.00s CPU      0.01s WALL (       1 calls)
     v_h          :      0.00s CPU      0.00s WALL (       1 calls)
     v_xc         :      0.00s CPU      0.01s WALL (       1 calls)
     newd         :      0.00s CPU      0.02s WALL (       1 calls)

     Called by c_bands:
     init_us_2    :      0.06s CPU      0.02s WALL (      50 calls)
     cegterg      :      5.16s CPU      2.85s WALL (      51 calls)

     Called by sum_band:

     Called by *egterg:
     h_psi        :      2.62s CPU      1.46s WALL (     710 calls)
     s_psi        :      0.11s CPU      0.05s WALL (     710 calls)
     g_psi        :      0.02s CPU      0.02s WALL (     609 calls)
     cdiaghg      :      1.75s CPU      1.14s WALL (     659 calls)
     cegterg:over :      0.42s CPU      0.13s WALL (     609 calls)
     cegterg:upda :      0.19s CPU      0.11s WALL (     609 calls)
     cegterg:last :      0.23s CPU      0.06s WALL (     132 calls)

     Called by h_psi:
     h_psi:pot    :      2.59s CPU      1.44s WALL (     710 calls)
     h_psi:calbec :      0.19s CPU      0.06s WALL (     710 calls)
     vloc_psi     :      2.27s CPU      1.30s WALL (     710 calls)
     add_vuspsi   :      0.08s CPU      0.06s WALL (     710 calls)

     General routines
     calbec       :      0.19s CPU      0.05s WALL (     710 calls)
     fft          :      0.00s CPU      0.01s WALL (      13 calls)
     ffts         :      0.00s CPU      0.00s WALL (       1 calls)
     fftw         :      1.73s CPU      1.00s WALL (   10108 calls)
     interpolate  :      0.00s CPU      0.00s WALL (       1 calls)
     davcio       :      0.00s CPU      0.00s WALL (      50 calls)

     Parallel routines
     fft_scatter  :      0.36s CPU      0.17s WALL (   10122 calls)

     PWSCF        :     6.84s CPU         4.04s WALL


   This run was terminated on:  13:47:12  25Feb2021            

=------------------------------------------------------------------------------=
   JOB DONE.
=------------------------------------------------------------------------------=
