element =  Ru
struct =  hcp
nbands =  -4
path =  GMKGALHA,LM,KH
kpts =  (8,8,4)

  ___ ___ ___ _ _ _  
 |   |   |_  | | | | 
 | | | | | . | | | | 
 |__ |  _|___|_____|  1.3.1b1
 |___|_|             

User:   inukai@DESKTOP-12SE80T
Date:   Sun Feb 14 08:14:23 2021
Arch:   x86_64
Pid:    11839
Python: 3.6.9
gpaw:   /usr/lib/python3/dist-packages/gpaw
_gpaw:  /usr/lib/python3/dist-packages/_gpaw.cpython-36m-x86_64-linux-gnu.so
ase:    /home/inukai/hotcent/ase-3.19.3/ase (version 3.19.3)
numpy:  /home/inukai/.local/lib/python3.6/site-packages/numpy (version 1.19.5)
scipy:  /home/inukai/.local/lib/python3.6/site-packages/scipy (version 1.5.4)
units:  Angstrom and eV
cores:  1

Input parameters:
  kpts: [8 8 4]
  maxiter: 1500
  mixer: {backend: pulay,
          beta: 0.05,
          method: separate,
          nmaxold: 5,
          weight: 50}
  mode: {ecut: 400.0,
         name: pw}
  occupations: {name: fermi-dirac,
                width: 0.02}
  spinpol: True
  xc: PBE

System changes: positions, numbers, cell, pbc, initial_charges, initial_magmoms 

Initialize ...

Ru-setup:
  name: Ruthenium
  id: 670232e5f51aeb2542f664849653fb2d
  Z: 44
  valence: 16
  core: 28
  charge: 0.0
  file: /usr/share/gpaw-setups/Ru.PBE.gz
  cutoffs: 1.23(comp), 2.16(filt), 1.30(core), lmax=2
  valence states:
                energy  radius
    4s(2.00)   -76.316   1.281
    5s(1.00)    -4.236   1.281
    4p(6.00)   -46.423   1.286
    5p(0.00)    -0.913   1.286
    4d(7.00)    -5.203   1.254
    *d          22.008   1.254

  Using partial waves for Ru as LCAO basis

Reference energy: -246490.249966

Spin-polarized calculation.
Magnetic moment:  0.000000

Occupation numbers:
  Fermi-Dirac: width=0.0200 eV

Convergence criteria:
  Maximum total energy change: 0.0005 eV / electron
  Maximum integral of absolute density change: 0.0001 electrons
  Maximum integral of absolute eigenstate change: 4e-08 eV^2
  Maximum number of iterations: 1500

Symmetries present (total): 12

  ( 1  1  0)  ( 1  1  0)  ( 1  0  0)  ( 1  0  0)  ( 0  1  0)  ( 0  1  0)
  ( 0 -1  0)  (-1  0  0)  ( 0  1  0)  (-1 -1  0)  ( 1  0  0)  (-1 -1  0)
  ( 0  0  1)  ( 0  0 -1)  ( 0  0  1)  ( 0  0 -1)  ( 0  0 -1)  ( 0  0  1)

  ( 0 -1  0)  ( 0 -1  0)  (-1  0  0)  (-1  0  0)  (-1 -1  0)  (-1 -1  0)
  ( 1  1  0)  (-1  0  0)  ( 1  1  0)  ( 0 -1  0)  ( 1  0  0)  ( 0  1  0)
  ( 0  0 -1)  ( 0  0  1)  ( 0  0  1)  ( 0  0 -1)  ( 0  0  1)  ( 0  0 -1)
Note: your k-points are not as symmetric as your crystal!

256 k-points: 8 x 8 x 4 Monkhorst-Pack grid
72 k-points in the irreducible part of the Brillouin zone
       k-points in crystal coordinates                weights
   0:     0.06250000   -0.06250000   -0.37500000          2/256
   1:     0.06250000   -0.06250000   -0.12500000          2/256
   2:     0.06250000   -0.06250000    0.12500000          2/256
   3:     0.06250000   -0.06250000    0.37500000          2/256
   4:     0.06250000    0.06250000    0.12500000          4/256
   5:     0.06250000    0.06250000    0.37500000          4/256
   6:     0.18750000   -0.18750000   -0.37500000          2/256
   7:     0.18750000   -0.18750000   -0.12500000          2/256
   8:     0.18750000   -0.18750000    0.12500000          2/256
   9:     0.18750000   -0.18750000    0.37500000          2/256
          ...
  71:     0.43750000    0.43750000    0.37500000          4/256

Wave functions: Plane wave expansion
  Cutoff energy: 400.000 eV
  Number of coefficients (min, max): 494, 516
  Using FFTW library
  Eigensolver: None  MatrixOperator buffer_size: default value or 
                              see value of nblock in input file
Diagonalizer layout: Serial LAPACKOrthonormalizer layout: Serial LAPACK 

Davidson(niter=1, smin=None, normalize=True) 

Densities:
  Coarse grid: 12*12*20 grid
  Fine grid: 24*24*40 grid
  Total Charge: 0.000000 

Density mixing:
  Method: separate
  Backend: pulay
  Linear mixing parameter: 0.05
  Mixing with 5 old densities
  Damping of long wave oscillations: 50 

Hamiltonian:
  XC and Coulomb potentials evaluated on a 24*24*40 grid
  Using the PBE Exchange-Correlation functional
 

Memory estimate:
  Process memory now: 929.00 MiB
  Calculator: 39.02 MiB
    Density: 1.67 MiB
      Arrays: 0.77 MiB
      Localized functions: 0.46 MiB
      Mixer: 0.44 MiB
    Hamiltonian: 0.58 MiB
      Arrays: 0.57 MiB
      XC: 0.00 MiB
      Poisson: 0.00 MiB
      vbar: 0.01 MiB
    Wavefunctions: 36.77 MiB
      Arrays psit_nG: 29.48 MiB
      Eigensolver: 0.35 MiB
      Projections: 2.06 MiB
      Projectors: 4.15 MiB
      Overlap op: 0.22 MiB
      PW-descriptor: 0.52 MiB

Total number of cores used: 1

Number of atoms: 2
Number of atomic orbitals: 26
Number of bands in calculation: 26
Bands to converge: occupied states only
Number of valence electrons: 32

... initialized

Initializing position-dependent things.

Density initialized from atomic densities
Creating initial wave functions:
  26 bands from LCAO basis set

                    
                    
                    
                    
        Ru          
                    
                    
          Ru        
                    
                    
                    
                    

Positions:
   0 Ru     0.000000    1.574208    3.225373
   1 Ru     1.363304    0.787104    1.075125

Unit cell:
           periodic     x           y           z      points  spacing
  1. axis:    yes    2.726609    0.000000    0.000000    12     0.1968
  2. axis:    yes   -1.363304    2.361313    0.000000    12     0.1968
  3. axis:    yes    0.000000    0.000000    4.300498    20     0.2150

  Lengths:   2.726609   2.726609   4.300498
  Angles:   90.000000  90.000000 120.000000

Effective grid spacing dv^(1/3) = 0.2126

                     log10-error:    total        iterations:
           time      wfs    density  energy       fermi  poisson  magmom
iter:   1  08:14:37  +2.03   +inf   -20.197010    3               +0.0000
iter:   2  08:14:43  +0.06   +inf   -20.376269    3               -0.0000
iter:   3  08:14:48  -0.84   +inf   -20.399248    3               -0.0000
iter:   4  08:14:54  -1.03  -1.28   -20.053145    5               -0.0000
iter:   5  08:15:00  +0.40  -1.32   -18.773113    32              -0.0000
iter:   6  08:15:06  -1.38  -1.99   -18.786401    4               +0.0000
iter:   7  08:15:11  -1.06  -2.12   -18.759759    4               +0.0000
iter:   8  08:15:17  -2.05  -2.61   -18.756788    3               +0.0000
iter:   9  08:15:23  -3.64  -3.09   -18.756826    2               -0.0000
iter:  10  08:15:29  -3.59  -3.06   -18.756823    3               +0.0000
iter:  11  08:15:35  -4.45  -3.40   -18.756788    3               +0.0000
iter:  12  08:15:41  -5.50  -3.75   -18.756788    1               +0.0000
iter:  13  08:15:47  -5.49  -3.74   -18.756804    2               +0.0000
iter:  14  08:15:53  -4.28  -3.65   -18.756780    3               +0.0000
iter:  15  08:15:59  -5.85  -4.45   -18.756780    2               +0.0000
iter:  16  08:16:04  -7.00  -4.51   -18.756781    2               +0.0000
iter:  17  08:16:10  -6.36  -4.48   -18.756780    2               +0.0000
iter:  18  08:16:16  -6.39  -4.51   -18.756780    2               +0.0000
iter:  19  08:16:22  -6.90  -4.55   -18.756780    2               +0.0000
iter:  20  08:16:28  -6.19  -4.57   -18.756780    2               -0.0000
iter:  21  08:16:34  -6.66  -4.83   -18.756780    2               +0.0000
iter:  22  08:16:40  -8.25  -5.09   -18.756780    1               +0.0000

Converged after 22 iterations.

Dipole moment: (-0.000000, 0.000000, -0.000000) |e|*Ang

Total magnetic moment: 0.000000
Local magnetic moments:
   0 Ru 0.000000
   1 Ru 0.000000

Energy contributions relative to reference atoms: (reference = -246490.249966)

Kinetic:         -7.578638
Potential:       -0.305497
External:        +0.000000
XC:             -10.551612
Entropy (-ST):   -0.001809
Local:           -0.320129
--------------------------
Free energy:    -18.757684
Extrapolated:   -18.756780

Spin contamination: 0.000000 electrons
Fermi level: 13.05636

Warning: Showing only first 2 kpts
                      Up                     Down
 Kpt  Band  Eigenvalues  Occupancy  Eigenvalues  Occupancy
  0    14     10.69235    0.00781     10.69235    0.00781
  0    15     11.30739    0.00781     11.30739    0.00781
  0    16     13.02365    0.00654     13.02365    0.00654
  0    17     13.09363    0.00105     13.09363    0.00105

  1    14     11.21195    0.00781     11.21195    0.00781
  1    15     11.87766    0.00781     11.87766    0.00781
  1    16     11.88157    0.00781     11.88157    0.00781
  1    17     12.92683    0.00780     12.92683    0.00780


Input parameters:
  convergence: {bands: all}
  eigensolver: {name: cg,
                niter: 5}
  fixdensity: True
  kpts: {npoints: 50,
         path: GMKGALHA,LM,KH}
  nbands: -4
  symmetry: off

Initialize ...

Ru-setup:
  name: Ruthenium
  id: 670232e5f51aeb2542f664849653fb2d
  Z: 44
  valence: 16
  core: 28
  charge: 0.0
  file: /usr/share/gpaw-setups/Ru.PBE.gz
  cutoffs: 1.23(comp), 2.16(filt), 1.30(core), lmax=2
  valence states:
                energy  radius
    4s(2.00)   -76.316   1.281
    5s(1.00)    -4.236   1.281
    4p(6.00)   -46.423   1.286
    5p(0.00)    -0.913   1.286
    4d(7.00)    -5.203   1.254
    *d          22.008   1.254

  Using partial waves for Ru as LCAO basis

Reference energy: -246490.249966

Spin-polarized calculation.
Magnetic moment:  0.000000

Occupation numbers:
  Fixed Fermi level
  Fermi-Dirac: width=0.0200 eV

Convergence criteria:
  Maximum total energy change: 0.0005 eV / electron
  Maximum integral of absolute density change: 0.0001 electrons
  Maximum integral of absolute eigenstate change: 4e-08 eV^2
  Maximum number of iterations: 1500

Symmetries present (total): 1

  ( 1  0  0)
  ( 0  1  0)
  ( 0  0  1)

50 k-points
50 k-points in the irreducible part of the Brillouin zone
       k-points in crystal coordinates                weights
   0:     0.00000000    0.00000000    0.00000000          1/50
   1:     0.08333333    0.00000000    0.00000000          1/50
   2:     0.16666667    0.00000000    0.00000000          1/50
   3:     0.25000000    0.00000000    0.00000000          1/50
   4:     0.33333333    0.00000000    0.00000000          1/50
   5:     0.41666667    0.00000000    0.00000000          1/50
   6:     0.50000000    0.00000000    0.00000000          1/50
   7:     0.44444444    0.11111111    0.00000000          1/50
   8:     0.38888889    0.22222222    0.00000000          1/50
   9:     0.33333333    0.33333333    0.00000000          1/50
          ...
  49:     0.33333333    0.33333333    0.50000000          1/50

Wave functions: Plane wave expansion
  Cutoff energy: 400.000 eV
  Number of coefficients (min, max): 488, 525
  Using FFTW library
  Eigensolver: None  MatrixOperator buffer_size: default value or 
                              see value of nblock in input file
Diagonalizer layout: Serial LAPACKOrthonormalizer layout: Serial LAPACK 

CG(niter=5, rtol=3.0e-01) 

No density mixing

Memory estimate:
  Process memory now: 1052.95 MiB
  Calculator: 23.02 MiB
    Density: 1.67 MiB
      Arrays: 0.77 MiB
      Localized functions: 0.46 MiB
      Mixer: 0.44 MiB
    Hamiltonian: 0.58 MiB
      Arrays: 0.57 MiB
      XC: 0.00 MiB
      Poisson: 0.00 MiB
      vbar: 0.01 MiB
    Wavefunctions: 20.77 MiB
      Arrays psit_nG: 16.02 MiB
      Eigensolver: 0.20 MiB
      Projections: 1.10 MiB
      Projectors: 2.88 MiB
      Overlap op: 0.17 MiB
      PW-descriptor: 0.40 MiB

Total number of cores used: 1

Number of atoms: 2
Number of atomic orbitals: 26
Number of bands in calculation: 20
Bands to converge: all
Number of valence electrons: 32

... initialized

Initializing position-dependent things.

Creating initial wave functions:
  20 bands from LCAO basis set

                    
                    
                    
                    
        Ru          
                    
                    
          Ru        
                    
                    
                    
                    

Positions:
   0 Ru     0.000000    1.574208    3.225373
   1 Ru     1.363304    0.787104    1.075125

Unit cell:
           periodic     x           y           z      points  spacing
  1. axis:    yes    2.726609    0.000000    0.000000    12     0.1968
  2. axis:    yes   -1.363304    2.361313    0.000000    12     0.1968
  3. axis:    yes    0.000000    0.000000    4.300498    20     0.2150

  Lengths:   2.726609   2.726609   4.300498
  Angles:   90.000000  90.000000 120.000000

Effective grid spacing dv^(1/3) = 0.2126

                     log10-error:    total        iterations:
           time      wfs    density  energy       fermi  poisson  magmom
iter:   1  08:16:58  +0.87          -19.240507    31              +0.0000
iter:   2  08:17:11  -0.02          -19.319509    30              +0.0000
iter:   3  08:17:24  -1.04          -19.332336    29              +0.0000
iter:   4  08:17:38  -1.80          -19.333809    31              +0.0000
iter:   5  08:17:51  -2.69          -19.334104    30              +0.0000
iter:   6  08:18:04  -3.44          -19.334149    31              +0.0000
iter:   7  08:18:17  -4.22          -19.334158    29              +0.0000
iter:   8  08:18:30  -4.92          -19.334160    30              +0.0000
iter:   9  08:18:38  -5.61          -19.334160    29              +0.0000
iter:  10  08:18:43  -6.23          -19.334160    29              +0.0000
iter:  11  08:18:47  -6.90          -19.334160    29              +0.0000
iter:  12  08:18:49  -7.50          -19.334160    29              +0.0000

Converged after 12 iterations.

Dipole moment: (-0.000000, 0.000000, -0.000000) |e|*Ang

Total magnetic moment: 0.000000
Local magnetic moments:
   0 Ru 0.000000
   1 Ru 0.000000

Energy contributions relative to reference atoms: (reference = -246490.249966)

Kinetic:         -8.155402
Potential:       -0.305499
External:        +0.000000
XC:             -10.551616
Entropy (-ST):   -0.003030
Local:           -0.320127
--------------------------
Free energy:    -19.335676
Extrapolated:   -19.334160

Spin contamination: 0.000000 electrons
Fixed Fermi level: 13.05636

Warning: Showing only first 2 kpts
                      Up                     Down
 Kpt  Band  Eigenvalues  Occupancy  Eigenvalues  Occupancy
  0    14     11.21418    0.02000     11.21418    0.02000
  0    15     11.71040    0.02000     11.71040    0.02000
  0    16     11.71081    0.02000     11.71081    0.02000
  0    17     14.21910    0.00000     14.21910    0.00000

  1    14     11.39902    0.02000     11.39902    0.02000
  1    15     11.45572    0.02000     11.45572    0.02000
  1    16     11.56185    0.02000     11.56185    0.02000
  1    17     12.78257    0.02000     12.78257    0.02000


Timing:                              incl.     excl.
-----------------------------------------------------------
Hamiltonian:                         0.979     0.001   0.0% |
 Atomic:                             0.780     0.003   0.0% |
  XC Correction:                     0.778     0.778   0.3% |
 Calculate atomic Hamiltonians:      0.018     0.018   0.0% |
 Communicate:                        0.000     0.000   0.0% |
 Initialize Hamiltonian:             0.000     0.000   0.0% |
 Poisson:                            0.000     0.000   0.0% |
 XC 3D grid:                         0.179     0.179   0.1% |
LCAO initialization:                13.584     0.197   0.1% |
 LCAO eigensolver:                   4.423     0.025   0.0% |
  Calculate projections:             0.020     0.020   0.0% |
  DenseAtomicCorrection:             0.071     0.071   0.0% |
  Distribute overlap matrix:         0.011     0.011   0.0% |
  Orbital Layouts:                   0.420     0.420   0.2% |
  Potential matrix:                  2.080     2.080   0.8% |
  Sum over cells:                    1.797     1.797   0.7% |
 LCAO to grid:                       6.860     6.860   2.6% ||
 Set positions (LCAO WFS):           2.105     0.003   0.0% |
  Basic WFS set positions:           0.001     0.001   0.0% |
  Basis functions set positions:     0.000     0.000   0.0% |
  TCI: Calculate S, T, P:            2.100     2.100   0.8% |
PWDescriptor:                        0.034     0.034   0.0% |
Redistribute:                        0.000     0.000   0.0% |
SCF-cycle:                         250.158     6.609   2.5% ||
 CG:                               109.206    98.740  36.8% |--------------|
  CG: orthonormalize:               10.466     5.643   2.1% ||
   CG: overlap:                      2.924     2.924   1.1% |
   CG: overlap2:                     1.899     1.899   0.7% |
 Davidson:                          84.109    41.025  15.3% |-----|
  calc. matrices:                   20.985    20.985   7.8% |--|
  diagonalize:                      20.132    20.132   7.5% |--|
  rotate_psi:                        1.967     1.967   0.7% |
 Density:                            7.783     0.001   0.0% |
  Atomic density matrices:           0.123     0.123   0.0% |
  Mix:                               0.238     0.238   0.1% |
  Multipole moments:                 0.003     0.003   0.0% |
  Pseudo density:                    7.419     7.328   2.7% ||
   Symmetrize density:               0.090     0.090   0.0% |
 Hamiltonian:                        9.086     0.013   0.0% |
  Atomic:                            7.518     0.024   0.0% |
   XC Correction:                    7.494     7.494   2.8% ||
  Calculate atomic Hamiltonians:     0.152     0.152   0.1% |
  Communicate:                       0.000     0.000   0.0% |
  Poisson:                           0.006     0.006   0.0% |
  XC 3D grid:                        1.396     1.396   0.5% |
 Orthonormalize:                     0.590     0.022   0.0% |
  Band Layouts:                      0.031     0.005   0.0% |
   Inverse Cholesky:                 0.026     0.026   0.0% |
  calc_s_matrix:                     0.087     0.087   0.0% |
  projections:                       0.384     0.384   0.1% |
  rotate_psi:                        0.066     0.066   0.0% |
 Residuals:                          2.261     2.261   0.8% |
 Subspace diag:                     30.516     0.615   0.2% |
  Band Layouts:                      5.286     0.174   0.1% |
   Diagonalize:                      4.979     4.979   1.9% ||
   Distribute results:               0.133     0.133   0.0% |
  calc_h_matrix:                    22.666    22.666   8.4% |--|
  rotate_psi:                        1.948     1.948   0.7% |
Set symmetry:                        0.018     0.018   0.0% |
Other:                               3.643     3.643   1.4% ||
-----------------------------------------------------------
Total:                                       268.415 100.0%

Date: Sun Feb 14 08:18:51 2021
element =  Ru
struct =  hcp
kpts =  (8,8,4)
element =  Ru
configuration =  [Kr] 4d7 5s1 5p0
valence =  ['4d', '5s', '5p']
occupations =  {'4d': 7, '5s': 1}
nls =  4d
rNum =  600
lmax =  d
*******************************************
Starting confinement parameter optimization
Adjustable parameters and initial values:
  Ru_4d.r0 : 5.518000
  Ru_5p.r0 : 5.518000
  Ru_5s.r0 : 5.518000
  Ru_n.r0 : 8.277000
*******************************************

OPT_VAL: 5.51800028744383   5.51800028744383   5.51800028744383   8.277000431165746
VCONF:
  Ru_4d : PowerConfinement(r0=5.518000, s=2.000000)
  Ru_5p : PowerConfinement(r0=5.518000, s=2.000000)
  Ru_5s : PowerConfinement(r0=5.518000, s=2.000000)
  Ru_n : PowerConfinement(r0=8.277000, s=2.000000)
RESIDUAL: 0.0

OPT_VAL: 5.7180002874438305   5.51800028744383   5.51800028744383   8.277000431165746
VCONF:
  Ru_4d : PowerConfinement(r0=5.718000, s=2.000000)
  Ru_5p : PowerConfinement(r0=5.518000, s=2.000000)
  Ru_5s : PowerConfinement(r0=5.518000, s=2.000000)
  Ru_n : PowerConfinement(r0=8.277000, s=2.000000)
RESIDUAL: 0.0

OPT_VAL: 5.51800028744383   5.7180002874438305   5.51800028744383   8.277000431165746
VCONF:
  Ru_4d : PowerConfinement(r0=5.518000, s=2.000000)
  Ru_5p : PowerConfinement(r0=5.718000, s=2.000000)
  Ru_5s : PowerConfinement(r0=5.518000, s=2.000000)
  Ru_n : PowerConfinement(r0=8.277000, s=2.000000)
RESIDUAL: 0.0

OPT_VAL: 5.51800028744383   5.51800028744383   5.7180002874438305   8.277000431165746
VCONF:
  Ru_4d : PowerConfinement(r0=5.518000, s=2.000000)
  Ru_5p : PowerConfinement(r0=5.518000, s=2.000000)
  Ru_5s : PowerConfinement(r0=5.718000, s=2.000000)
  Ru_n : PowerConfinement(r0=8.277000, s=2.000000)
RESIDUAL: 0.0

OPT_VAL: 5.51800028744383   5.51800028744383   5.51800028744383   8.477000431165745
VCONF:
  Ru_4d : PowerConfinement(r0=5.518000, s=2.000000)
  Ru_5p : PowerConfinement(r0=5.518000, s=2.000000)
  Ru_5s : PowerConfinement(r0=5.518000, s=2.000000)
  Ru_n : PowerConfinement(r0=8.477000, s=2.000000)
RESIDUAL: 0.0

OPT_VAL: 5.543000287443831   5.51800028744383   5.51800028744383   8.277000431165746
VCONF:
  Ru_4d : PowerConfinement(r0=5.543000, s=2.000000)
  Ru_5p : PowerConfinement(r0=5.518000, s=2.000000)
  Ru_5s : PowerConfinement(r0=5.518000, s=2.000000)
  Ru_n : PowerConfinement(r0=8.277000, s=2.000000)
RESIDUAL: 0.0

OPT_VAL: 5.51800028744383   5.543000287443831   5.51800028744383   8.277000431165746
VCONF:
  Ru_4d : PowerConfinement(r0=5.518000, s=2.000000)
  Ru_5p : PowerConfinement(r0=5.543000, s=2.000000)
  Ru_5s : PowerConfinement(r0=5.518000, s=2.000000)
  Ru_n : PowerConfinement(r0=8.277000, s=2.000000)
RESIDUAL: 0.0

OPT_VAL: 5.51800028744383   5.51800028744383   5.543000287443831   8.277000431165746
VCONF:
  Ru_4d : PowerConfinement(r0=5.518000, s=2.000000)
  Ru_5p : PowerConfinement(r0=5.518000, s=2.000000)
  Ru_5s : PowerConfinement(r0=5.543000, s=2.000000)
  Ru_n : PowerConfinement(r0=8.277000, s=2.000000)
RESIDUAL: 0.0

OPT_VAL: 5.51800028744383   5.51800028744383   5.51800028744383   8.302000431165746
VCONF:
  Ru_4d : PowerConfinement(r0=5.518000, s=2.000000)
  Ru_5p : PowerConfinement(r0=5.518000, s=2.000000)
  Ru_5s : PowerConfinement(r0=5.518000, s=2.000000)
  Ru_n : PowerConfinement(r0=8.302000, s=2.000000)
RESIDUAL: 0.0

OPT_VAL: 5.52300028744383   5.51800028744383   5.51800028744383   8.277000431165746
VCONF:
  Ru_4d : PowerConfinement(r0=5.523000, s=2.000000)
  Ru_5p : PowerConfinement(r0=5.518000, s=2.000000)
  Ru_5s : PowerConfinement(r0=5.518000, s=2.000000)
  Ru_n : PowerConfinement(r0=8.277000, s=2.000000)
RESIDUAL: 0.0

OPT_VAL: 5.51800028744383   5.52300028744383   5.51800028744383   8.277000431165746
VCONF:
  Ru_4d : PowerConfinement(r0=5.518000, s=2.000000)
  Ru_5p : PowerConfinement(r0=5.523000, s=2.000000)
  Ru_5s : PowerConfinement(r0=5.518000, s=2.000000)
  Ru_n : PowerConfinement(r0=8.277000, s=2.000000)
RESIDUAL: 0.0

OPT_VAL: 5.51800028744383   5.51800028744383   5.52300028744383   8.277000431165746
VCONF:
  Ru_4d : PowerConfinement(r0=5.518000, s=2.000000)
  Ru_5p : PowerConfinement(r0=5.518000, s=2.000000)
  Ru_5s : PowerConfinement(r0=5.523000, s=2.000000)
  Ru_n : PowerConfinement(r0=8.277000, s=2.000000)
RESIDUAL: 0.0

OPT_VAL: 5.51800028744383   5.51800028744383   5.51800028744383   8.282000431165747
VCONF:
  Ru_4d : PowerConfinement(r0=5.518000, s=2.000000)
  Ru_5p : PowerConfinement(r0=5.518000, s=2.000000)
  Ru_5s : PowerConfinement(r0=5.518000, s=2.000000)
  Ru_n : PowerConfinement(r0=8.282000, s=2.000000)
RESIDUAL: 0.0

*******************************************
Optimization finished after 13 iterations
Adjustable parameters and final values:
  Ru_4d.r0 : 5.518000
  Ru_5p.r0 : 5.518000
  Ru_5s.r0 : 5.518000
  Ru_n.r0 : 8.277000
*******************************************

VCONF:
  Ru_4d : PowerConfinement(r0=5.518000, s=2.000000)
  Ru_5p : PowerConfinement(r0=5.518000, s=2.000000)
  Ru_5s : PowerConfinement(r0=5.518000, s=2.000000)
  Ru_n : PowerConfinement(r0=8.277000, s=2.000000)
