
     Program PWSCF v.6.0 (svn rev. 13079) starts on 26Feb2021 at 16:25:20 

     This program is part of the open-source Quantum ESPRESSO suite
     for quantum simulation of materials; please cite
         "P. Giannozzi et al., J. Phys.:Condens. Matter 21 395502 (2009);
          URL http://www.quantum-espresso.org", 
     in publications or presentations arising from this work. More details at
     http://www.quantum-espresso.org/quote

     Parallel version (MPI), running on     1 processors
     Reading input from espresso.pwi
Warning: card &IONS ignored
Warning: card / ignored
Warning: card &CELL ignored
Warning: card / ignored

     Current dimensions of program PWSCF are:
     Max number of different atomic species (ntypx) = 10
     Max number of k-points (npk) =  40000
     Max angular momentum in pseudopotentials (lmaxx) =  3
     Message from routine input:
     WARNING: "startingwfc" set to atomic+random may spoil restart

     Atomic positions and unit cell read from directory:
     ./pwscf.save/


     IMPORTANT: XC functional enforced from input :
     Exchange-correlation      = PBE ( 1  4  3  4 0 0)
     Any further DFT definition will be discarded
     Please, verify this is what you really want


     Subspace diagonalization in iterative solution of the eigenvalue problem:
     a serial algorithm will be used


     G-vector sticks info
     --------------------
     sticks:   dense  smooth     PW     G-vecs:    dense   smooth      PW
     Sum         451     367    121                14827    10621    1897



     bravais-lattice index     =            0
     lattice parameter (alat)  =       5.7394  a.u.
     unit-cell volume          =     311.0884 (a.u.)^3
     number of atoms/cell      =            2
     number of atomic types    =            1
     number of electrons       =        24.00
     number of Kohn-Sham states=           16
     kinetic-energy cutoff     =      40.0000  Ry
     charge density cutoff     =     200.0000  Ry
     Exchange-correlation      = PBE ( 1  4  3  4 0 0)

     celldm(1)=   5.739399  celldm(2)=   0.000000  celldm(3)=   0.000000
     celldm(4)=   0.000000  celldm(5)=   0.000000  celldm(6)=   0.000000

     crystal axes: (cart. coord. in units of alat)
               a(1) = (   1.000000   0.000000   0.000000 )  
               a(2) = (  -0.500000   0.866025   0.000000 )  
               a(3) = (   0.000000   0.000000   1.900002 )  

     reciprocal axes: (cart. coord. in units 2 pi/alat)
               b(1) = (  1.000000  0.577350 -0.000000 )  
               b(2) = (  0.000000  1.154701  0.000000 )  
               b(3) = (  0.000000 -0.000000  0.526315 )  


     PseudoPot. # 1 for Cd read from file:
     /home/inukai/tango/tests/1element/qe_fit_v3_Cd/../pseudo/cd_pbe_v1.uspp.F.UPF
     MD5 check sum: 17164a7926edb8e0dc231208abae86a6
     Pseudo is Ultrasoft + core correction, Zval = 12.0
     Generated by new atomic code, or converted to UPF format
     Using radial grid of  889 points,  6 beta functions with: 
                l(1) =   0
                l(2) =   0
                l(3) =   1
                l(4) =   1
                l(5) =   2
                l(6) =   2
     Q(r) pseudized with  6 coefficients,  rinner =    1.000   1.000   1.000
                                                       1.000   1.000

     atomic species   valence    mass     pseudopotential
        Cd            12.00   112.41400     Cd( 1.00)

     24 Sym. Ops., with inversion, found (12 have fractional translation)


                                    s                        frac. trans.

      isym =  1     identity                                     

 cryst.   s( 1) = (     1          0          0      )
                  (     0          1          0      )
                  (     0          0          1      )

 cart.    s( 1) = (  1.0000000  0.0000000  0.0000000 )
                  (  0.0000000  1.0000000  0.0000000 )
                  (  0.0000000  0.0000000  1.0000000 )


      isym =  2     180 deg rotation - cart. axis [0,0,1]        

 cryst.   s( 2) = (    -1          0          0      )    f =(  0.0000000 )
                  (     0         -1          0      )       (  0.0000000 )
                  (     0          0          1      )       ( -0.5000000 )

 cart.    s( 2) = ( -1.0000000 -0.0000000  0.0000000 )    f =(  0.0000000 )
                  (  0.0000000 -1.0000000  0.0000000 )       (  0.0000000 )
                  (  0.0000000  0.0000000  1.0000000 )       ( -0.9500010 )


      isym =  3     180 deg rotation - cart. axis [0,1,0]        

 cryst.   s( 3) = (    -1          0          0      )    f =(  0.0000000 )
                  (     1          1          0      )       (  0.0000000 )
                  (     0          0         -1      )       ( -0.5000000 )

 cart.    s( 3) = ( -1.0000000 -0.0000000  0.0000000 )    f =(  0.0000000 )
                  (  0.0000000  1.0000000  0.0000000 )       (  0.0000000 )
                  (  0.0000000  0.0000000 -1.0000000 )       ( -0.9500010 )


      isym =  4     180 deg rotation - cart. axis [1,0,0]        

 cryst.   s( 4) = (     1          0          0      )
                  (    -1         -1          0      )
                  (     0          0         -1      )

 cart.    s( 4) = (  1.0000000  0.0000000  0.0000000 )
                  (  0.0000000 -1.0000000  0.0000000 )
                  (  0.0000000  0.0000000 -1.0000000 )


      isym =  5      60 deg rotation - cryst. axis [0,0,1]       

 cryst.   s( 5) = (     1          1          0      )    f =(  0.0000000 )
                  (    -1          0          0      )       (  0.0000000 )
                  (     0          0          1      )       ( -0.5000000 )

 cart.    s( 5) = (  0.5000000 -0.8660254  0.0000000 )    f =(  0.0000000 )
                  (  0.8660254  0.5000000  0.0000000 )       (  0.0000000 )
                  (  0.0000000  0.0000000  1.0000000 )       ( -0.9500010 )


      isym =  6      60 deg rotation - cryst. axis [0,0,-1]      

 cryst.   s( 6) = (     0         -1          0      )    f =(  0.0000000 )
                  (     1          1          0      )       (  0.0000000 )
                  (     0          0          1      )       ( -0.5000000 )

 cart.    s( 6) = (  0.5000000  0.8660254  0.0000000 )    f =(  0.0000000 )
                  ( -0.8660254  0.5000000  0.0000000 )       (  0.0000000 )
                  (  0.0000000  0.0000000  1.0000000 )       ( -0.9500010 )


      isym =  7     120 deg rotation - cryst. axis [0,0,1]       

 cryst.   s( 7) = (     0          1          0      )
                  (    -1         -1          0      )
                  (     0          0          1      )

 cart.    s( 7) = ( -0.5000000 -0.8660254  0.0000000 )
                  (  0.8660254 -0.5000000  0.0000000 )
                  (  0.0000000  0.0000000  1.0000000 )


      isym =  8     120 deg rotation - cryst. axis [0,0,-1]      

 cryst.   s( 8) = (    -1         -1          0      )
                  (     1          0          0      )
                  (     0          0          1      )

 cart.    s( 8) = ( -0.5000000  0.8660254  0.0000000 )
                  ( -0.8660254 -0.5000000  0.0000000 )
                  (  0.0000000  0.0000000  1.0000000 )


      isym =  9     180 deg rotation - cryst. axis [1,-1,0]      

 cryst.   s( 9) = (     0         -1          0      )    f =(  0.0000000 )
                  (    -1          0          0      )       (  0.0000000 )
                  (     0          0         -1      )       ( -0.5000000 )

 cart.    s( 9) = (  0.5000000 -0.8660254  0.0000000 )    f =(  0.0000000 )
                  ( -0.8660254 -0.5000000  0.0000000 )       (  0.0000000 )
                  (  0.0000000  0.0000000 -1.0000000 )       ( -0.9500010 )


      isym = 10     180 deg rotation - cryst. axis [2,1,0]       

 cryst.   s(10) = (     1          1          0      )    f =(  0.0000000 )
                  (     0         -1          0      )       (  0.0000000 )
                  (     0          0         -1      )       ( -0.5000000 )

 cart.    s(10) = (  0.5000000  0.8660254  0.0000000 )    f =(  0.0000000 )
                  (  0.8660254 -0.5000000  0.0000000 )       (  0.0000000 )
                  (  0.0000000  0.0000000 -1.0000000 )       ( -0.9500010 )


      isym = 11     180 deg rotation - cryst. axis [0,1,0]       

 cryst.   s(11) = (    -1         -1          0      )
                  (     0          1          0      )
                  (     0          0         -1      )

 cart.    s(11) = ( -0.5000000 -0.8660254  0.0000000 )
                  ( -0.8660254  0.5000000  0.0000000 )
                  (  0.0000000  0.0000000 -1.0000000 )


      isym = 12     180 deg rotation - cryst. axis [1,1,0]       

 cryst.   s(12) = (     0          1          0      )
                  (     1          0          0      )
                  (     0          0         -1      )

 cart.    s(12) = ( -0.5000000  0.8660254  0.0000000 )
                  (  0.8660254  0.5000000  0.0000000 )
                  (  0.0000000  0.0000000 -1.0000000 )


      isym = 13     inversion                                    

 cryst.   s(13) = (    -1          0          0      )
                  (     0         -1          0      )
                  (     0          0         -1      )

 cart.    s(13) = ( -1.0000000 -0.0000000  0.0000000 )
                  (  0.0000000 -1.0000000  0.0000000 )
                  (  0.0000000  0.0000000 -1.0000000 )


      isym = 14     inv. 180 deg rotation - cart. axis [0,0,1]   

 cryst.   s(14) = (     1          0          0      )    f =(  0.0000000 )
                  (     0          1          0      )       (  0.0000000 )
                  (     0          0         -1      )       ( -0.5000000 )

 cart.    s(14) = (  1.0000000  0.0000000  0.0000000 )    f =(  0.0000000 )
                  (  0.0000000  1.0000000  0.0000000 )       (  0.0000000 )
                  (  0.0000000  0.0000000 -1.0000000 )       ( -0.9500010 )


      isym = 15     inv. 180 deg rotation - cart. axis [0,1,0]   

 cryst.   s(15) = (     1          0          0      )    f =(  0.0000000 )
                  (    -1         -1          0      )       (  0.0000000 )
                  (     0          0          1      )       ( -0.5000000 )

 cart.    s(15) = (  1.0000000  0.0000000  0.0000000 )    f =(  0.0000000 )
                  (  0.0000000 -1.0000000  0.0000000 )       (  0.0000000 )
                  (  0.0000000  0.0000000  1.0000000 )       ( -0.9500010 )


      isym = 16     inv. 180 deg rotation - cart. axis [1,0,0]   

 cryst.   s(16) = (    -1          0          0      )
                  (     1          1          0      )
                  (     0          0          1      )

 cart.    s(16) = ( -1.0000000 -0.0000000  0.0000000 )
                  (  0.0000000  1.0000000  0.0000000 )
                  (  0.0000000  0.0000000  1.0000000 )


      isym = 17     inv.  60 deg rotation - cryst. axis [0,0,1]  

 cryst.   s(17) = (    -1         -1          0      )    f =(  0.0000000 )
                  (     1          0          0      )       (  0.0000000 )
                  (     0          0         -1      )       ( -0.5000000 )

 cart.    s(17) = ( -0.5000000  0.8660254  0.0000000 )    f =(  0.0000000 )
                  ( -0.8660254 -0.5000000  0.0000000 )       (  0.0000000 )
                  (  0.0000000  0.0000000 -1.0000000 )       ( -0.9500010 )


      isym = 18     inv.  60 deg rotation - cryst. axis [0,0,-1] 

 cryst.   s(18) = (     0          1          0      )    f =(  0.0000000 )
                  (    -1         -1          0      )       (  0.0000000 )
                  (     0          0         -1      )       ( -0.5000000 )

 cart.    s(18) = ( -0.5000000 -0.8660254  0.0000000 )    f =(  0.0000000 )
                  (  0.8660254 -0.5000000  0.0000000 )       (  0.0000000 )
                  (  0.0000000  0.0000000 -1.0000000 )       ( -0.9500010 )


      isym = 19     inv. 120 deg rotation - cryst. axis [0,0,1]  

 cryst.   s(19) = (     0         -1          0      )
                  (     1          1          0      )
                  (     0          0         -1      )

 cart.    s(19) = (  0.5000000  0.8660254  0.0000000 )
                  ( -0.8660254  0.5000000  0.0000000 )
                  (  0.0000000  0.0000000 -1.0000000 )


      isym = 20     inv. 120 deg rotation - cryst. axis [0,0,-1] 

 cryst.   s(20) = (     1          1          0      )
                  (    -1          0          0      )
                  (     0          0         -1      )

 cart.    s(20) = (  0.5000000 -0.8660254  0.0000000 )
                  (  0.8660254  0.5000000  0.0000000 )
                  (  0.0000000  0.0000000 -1.0000000 )


      isym = 21     inv. 180 deg rotation - cryst. axis [1,-1,0] 

 cryst.   s(21) = (     0          1          0      )    f =(  0.0000000 )
                  (     1          0          0      )       (  0.0000000 )
                  (     0          0          1      )       ( -0.5000000 )

 cart.    s(21) = ( -0.5000000  0.8660254  0.0000000 )    f =(  0.0000000 )
                  (  0.8660254  0.5000000  0.0000000 )       (  0.0000000 )
                  (  0.0000000  0.0000000  1.0000000 )       ( -0.9500010 )


      isym = 22     inv. 180 deg rotation - cryst. axis [2,1,0]  

 cryst.   s(22) = (    -1         -1          0      )    f =(  0.0000000 )
                  (     0          1          0      )       (  0.0000000 )
                  (     0          0          1      )       ( -0.5000000 )

 cart.    s(22) = ( -0.5000000 -0.8660254  0.0000000 )    f =(  0.0000000 )
                  ( -0.8660254  0.5000000  0.0000000 )       (  0.0000000 )
                  (  0.0000000  0.0000000  1.0000000 )       ( -0.9500010 )


      isym = 23     inv. 180 deg rotation - cryst. axis [0,1,0]  

 cryst.   s(23) = (     1          1          0      )
                  (     0         -1          0      )
                  (     0          0          1      )

 cart.    s(23) = (  0.5000000  0.8660254  0.0000000 )
                  (  0.8660254 -0.5000000  0.0000000 )
                  (  0.0000000  0.0000000  1.0000000 )


      isym = 24     inv. 180 deg rotation - cryst. axis [1,1,0]  

 cryst.   s(24) = (     0         -1          0      )
                  (    -1          0          0      )
                  (     0          0          1      )

 cart.    s(24) = (  0.5000000 -0.8660254  0.0000000 )
                  ( -0.8660254 -0.5000000  0.0000000 )
                  (  0.0000000  0.0000000  1.0000000 )


   Cartesian axes

     site n.     atom                  positions (alat units)
         1           Cd  tau(   1) = (   0.0000000   0.5773503   1.4250015  )
         2           Cd  tau(   2) = (   0.5000000   0.2886751   0.4750005  )

   Crystallographic axes

     site n.     atom                  positions (cryst. coord.)
         1           Cd  tau(   1) = (  0.3333333  0.6666667  0.7500000  )
         2           Cd  tau(   2) = (  0.6666667  0.3333333  0.2500000  )

     number of k points=    50  gaussian smearing, width (Ry)=  0.0010
                       cart. coord. in units 2pi/alat
        k(    1) = (   0.0000000   0.0000000   0.0000000), wk =   0.0400000
        k(    2) = (   0.0833333   0.0481125   0.0000000), wk =   0.0400000
        k(    3) = (   0.1666667   0.0962250   0.0000000), wk =   0.0400000
        k(    4) = (   0.2500000   0.1443376   0.0000000), wk =   0.0400000
        k(    5) = (   0.3333333   0.1924501   0.0000000), wk =   0.0400000
        k(    6) = (   0.4166667   0.2405626   0.0000000), wk =   0.0400000
        k(    7) = (   0.5000000   0.2886751   0.0000000), wk =   0.0400000
        k(    8) = (   0.4444444   0.3849002   0.0000000), wk =   0.0400000
        k(    9) = (   0.3888889   0.4811252   0.0000000), wk =   0.0400000
        k(   10) = (   0.3333333   0.5773503   0.0000000), wk =   0.0400000
        k(   11) = (   0.2916667   0.5051815   0.0000000), wk =   0.0400000
        k(   12) = (   0.2500000   0.4330127   0.0000000), wk =   0.0400000
        k(   13) = (   0.2083333   0.3608439   0.0000000), wk =   0.0400000
        k(   14) = (   0.1666667   0.2886751   0.0000000), wk =   0.0400000
        k(   15) = (   0.1250000   0.2165064   0.0000000), wk =   0.0400000
        k(   16) = (   0.0833333   0.1443376   0.0000000), wk =   0.0400000
        k(   17) = (   0.0416667   0.0721688   0.0000000), wk =   0.0400000
        k(   18) = (   0.0000000   0.0000000   0.0000000), wk =   0.0400000
        k(   19) = (   0.0000000   0.0000000   0.0877192), wk =   0.0400000
        k(   20) = (   0.0000000   0.0000000   0.1754384), wk =   0.0400000
        k(   21) = (   0.0000000   0.0000000   0.2631576), wk =   0.0400000
        k(   22) = (   0.0714286   0.0412393   0.2631576), wk =   0.0400000
        k(   23) = (   0.1428571   0.0824786   0.2631576), wk =   0.0400000
        k(   24) = (   0.2142857   0.1237179   0.2631576), wk =   0.0400000
        k(   25) = (   0.2857143   0.1649572   0.2631576), wk =   0.0400000
        k(   26) = (   0.3571429   0.2061965   0.2631576), wk =   0.0400000
        k(   27) = (   0.4285714   0.2474358   0.2631576), wk =   0.0400000
        k(   28) = (   0.5000000   0.2886751   0.2631576), wk =   0.0400000
        k(   29) = (   0.4583333   0.3608439   0.2631576), wk =   0.0400000
        k(   30) = (   0.4166667   0.4330127   0.2631576), wk =   0.0400000
        k(   31) = (   0.3750000   0.5051815   0.2631576), wk =   0.0400000
        k(   32) = (   0.3333333   0.5773503   0.2631576), wk =   0.0400000
        k(   33) = (   0.3000000   0.5196152   0.2631576), wk =   0.0400000
        k(   34) = (   0.2666667   0.4618802   0.2631576), wk =   0.0400000
        k(   35) = (   0.2333333   0.4041452   0.2631576), wk =   0.0400000
        k(   36) = (   0.2000000   0.3464102   0.2631576), wk =   0.0400000
        k(   37) = (   0.1666667   0.2886751   0.2631576), wk =   0.0400000
        k(   38) = (   0.1333333   0.2309401   0.2631576), wk =   0.0400000
        k(   39) = (   0.1000000   0.1732051   0.2631576), wk =   0.0400000
        k(   40) = (   0.0666667   0.1154701   0.2631576), wk =   0.0400000
        k(   41) = (   0.0333333   0.0577350   0.2631576), wk =   0.0400000
        k(   42) = (   0.0000000   0.0000000   0.2631576), wk =   0.0400000
        k(   43) = (   0.5000000   0.2886751   0.2631576), wk =   0.0400000
        k(   44) = (   0.5000000   0.2886751   0.1754384), wk =   0.0400000
        k(   45) = (   0.5000000   0.2886751   0.0877192), wk =   0.0400000
        k(   46) = (   0.5000000   0.2886751   0.0000000), wk =   0.0400000
        k(   47) = (   0.3333333   0.5773503   0.0000000), wk =   0.0400000
        k(   48) = (   0.3333333   0.5773503   0.0877192), wk =   0.0400000
        k(   49) = (   0.3333333   0.5773503   0.1754384), wk =   0.0400000
        k(   50) = (   0.3333333   0.5773503   0.2631576), wk =   0.0400000

                       cryst. coord.
        k(    1) = (   0.0000000   0.0000000   0.0000000), wk =   0.0400000
        k(    2) = (   0.0833333   0.0000000   0.0000000), wk =   0.0400000
        k(    3) = (   0.1666667   0.0000000   0.0000000), wk =   0.0400000
        k(    4) = (   0.2500000   0.0000000   0.0000000), wk =   0.0400000
        k(    5) = (   0.3333333   0.0000000   0.0000000), wk =   0.0400000
        k(    6) = (   0.4166667   0.0000000   0.0000000), wk =   0.0400000
        k(    7) = (   0.5000000   0.0000000   0.0000000), wk =   0.0400000
        k(    8) = (   0.4444444   0.1111111   0.0000000), wk =   0.0400000
        k(    9) = (   0.3888889   0.2222222   0.0000000), wk =   0.0400000
        k(   10) = (   0.3333333   0.3333333   0.0000000), wk =   0.0400000
        k(   11) = (   0.2916667   0.2916667   0.0000000), wk =   0.0400000
        k(   12) = (   0.2500000   0.2500000   0.0000000), wk =   0.0400000
        k(   13) = (   0.2083333   0.2083333   0.0000000), wk =   0.0400000
        k(   14) = (   0.1666667   0.1666667   0.0000000), wk =   0.0400000
        k(   15) = (   0.1250000   0.1250000   0.0000000), wk =   0.0400000
        k(   16) = (   0.0833333   0.0833333   0.0000000), wk =   0.0400000
        k(   17) = (   0.0416667   0.0416667   0.0000000), wk =   0.0400000
        k(   18) = (   0.0000000   0.0000000   0.0000000), wk =   0.0400000
        k(   19) = (   0.0000000   0.0000000   0.1666667), wk =   0.0400000
        k(   20) = (   0.0000000   0.0000000   0.3333333), wk =   0.0400000
        k(   21) = (   0.0000000   0.0000000   0.5000000), wk =   0.0400000
        k(   22) = (   0.0714286   0.0000000   0.5000000), wk =   0.0400000
        k(   23) = (   0.1428571   0.0000000   0.5000000), wk =   0.0400000
        k(   24) = (   0.2142857   0.0000000   0.5000000), wk =   0.0400000
        k(   25) = (   0.2857143   0.0000000   0.5000000), wk =   0.0400000
        k(   26) = (   0.3571429   0.0000000   0.5000000), wk =   0.0400000
        k(   27) = (   0.4285714   0.0000000   0.5000000), wk =   0.0400000
        k(   28) = (   0.5000000   0.0000000   0.5000000), wk =   0.0400000
        k(   29) = (   0.4583333   0.0833333   0.5000000), wk =   0.0400000
        k(   30) = (   0.4166667   0.1666667   0.5000000), wk =   0.0400000
        k(   31) = (   0.3750000   0.2500000   0.5000000), wk =   0.0400000
        k(   32) = (   0.3333333   0.3333333   0.5000000), wk =   0.0400000
        k(   33) = (   0.3000000   0.3000000   0.5000000), wk =   0.0400000
        k(   34) = (   0.2666667   0.2666667   0.5000000), wk =   0.0400000
        k(   35) = (   0.2333333   0.2333333   0.5000000), wk =   0.0400000
        k(   36) = (   0.2000000   0.2000000   0.5000000), wk =   0.0400000
        k(   37) = (   0.1666667   0.1666667   0.5000000), wk =   0.0400000
        k(   38) = (   0.1333333   0.1333333   0.5000000), wk =   0.0400000
        k(   39) = (   0.1000000   0.1000000   0.5000000), wk =   0.0400000
        k(   40) = (   0.0666667   0.0666667   0.5000000), wk =   0.0400000
        k(   41) = (   0.0333333   0.0333333   0.5000000), wk =   0.0400000
        k(   42) = (   0.0000000   0.0000000   0.5000000), wk =   0.0400000
        k(   43) = (   0.5000000   0.0000000   0.5000000), wk =   0.0400000
        k(   44) = (   0.5000000   0.0000000   0.3333333), wk =   0.0400000
        k(   45) = (   0.5000000   0.0000000   0.1666667), wk =   0.0400000
        k(   46) = (   0.5000000   0.0000000   0.0000000), wk =   0.0400000
        k(   47) = (   0.3333333   0.3333333   0.0000000), wk =   0.0400000
        k(   48) = (   0.3333333   0.3333333   0.1666667), wk =   0.0400000
        k(   49) = (   0.3333333   0.3333333   0.3333333), wk =   0.0400000
        k(   50) = (   0.3333333   0.3333333   0.5000000), wk =   0.0400000

     Dense  grid:    14827 G-vectors     FFT dimensions: (  25,  25,  50)

     Smooth grid:    10621 G-vectors     FFT dimensions: (  24,  24,  45)

     Estimated max dynamical RAM per process >      23.98Mb

     The potential is recalculated from file :
     ./pwscf.save/charge-density.dat


     negative rho (up, down):  4.504E-02 0.000E+00
     Starting wfc are   18 randomized atomic wfcs

     Band Structure Calculation
     Davidson diagonalization with overlap

     Computing kpt #:     1
     total cpu time spent up to now is        1.3 secs

     Computing kpt #:     2
     total cpu time spent up to now is        1.9 secs

     Computing kpt #:     3
     total cpu time spent up to now is        2.5 secs

     Computing kpt #:     4
     total cpu time spent up to now is        3.4 secs

     Computing kpt #:     5
     total cpu time spent up to now is        4.1 secs

     Computing kpt #:     6
     total cpu time spent up to now is        4.6 secs

     Computing kpt #:     7
     total cpu time spent up to now is        5.2 secs

     Computing kpt #:     8
     total cpu time spent up to now is        5.8 secs

     Computing kpt #:     9
     total cpu time spent up to now is        6.3 secs

     Computing kpt #:    10
     total cpu time spent up to now is        6.8 secs

     Computing kpt #:    11
     total cpu time spent up to now is        7.5 secs

     Computing kpt #:    12
     total cpu time spent up to now is        8.2 secs

     Computing kpt #:    13
     total cpu time spent up to now is        8.9 secs

     Computing kpt #:    14
     total cpu time spent up to now is       10.5 secs

     Computing kpt #:    15
     total cpu time spent up to now is       11.1 secs

     Computing kpt #:    16
     total cpu time spent up to now is       11.7 secs

     Computing kpt #:    17
     total cpu time spent up to now is       12.4 secs

     Computing kpt #:    18
     total cpu time spent up to now is       13.1 secs

     Computing kpt #:    19
     total cpu time spent up to now is       14.2 secs

     Computing kpt #:    20
     total cpu time spent up to now is       15.2 secs

     Computing kpt #:    21
     total cpu time spent up to now is       15.9 secs

     Computing kpt #:    22
     total cpu time spent up to now is       16.7 secs

     Computing kpt #:    23
     total cpu time spent up to now is       17.8 secs

     Computing kpt #:    24
     total cpu time spent up to now is       18.6 secs

     Computing kpt #:    25
     total cpu time spent up to now is       19.2 secs

     Computing kpt #:    26
     total cpu time spent up to now is       19.8 secs

     Computing kpt #:    27
     total cpu time spent up to now is       20.3 secs

     Computing kpt #:    28
     total cpu time spent up to now is       20.8 secs

     Computing kpt #:    29
     total cpu time spent up to now is       21.4 secs

     Computing kpt #:    30
     total cpu time spent up to now is       21.9 secs

     Computing kpt #:    31
     total cpu time spent up to now is       22.4 secs

     Computing kpt #:    32
     total cpu time spent up to now is       22.8 secs

     Computing kpt #:    33
     total cpu time spent up to now is       23.3 secs

     Computing kpt #:    34
     total cpu time spent up to now is       23.9 secs

     Computing kpt #:    35
     total cpu time spent up to now is       24.4 secs

     Computing kpt #:    36
     total cpu time spent up to now is       25.0 secs

     Computing kpt #:    37
     total cpu time spent up to now is       25.6 secs

     Computing kpt #:    38
     total cpu time spent up to now is       26.3 secs

     Computing kpt #:    39
     total cpu time spent up to now is       27.0 secs

     Computing kpt #:    40
     total cpu time spent up to now is       27.8 secs

     Computing kpt #:    41
     total cpu time spent up to now is       28.8 secs

     Computing kpt #:    42
     total cpu time spent up to now is       29.6 secs

     Computing kpt #:    43
     total cpu time spent up to now is       30.1 secs

     Computing kpt #:    44
     total cpu time spent up to now is       30.9 secs

     Computing kpt #:    45
     total cpu time spent up to now is       31.4 secs

     Computing kpt #:    46
     total cpu time spent up to now is       31.9 secs

     Computing kpt #:    47
     total cpu time spent up to now is       32.4 secs

     Computing kpt #:    48
     total cpu time spent up to now is       32.9 secs

     Computing kpt #:    49
     total cpu time spent up to now is       33.4 secs

     Computing kpt #:    50
     total cpu time spent up to now is       33.8 secs

     ethr =  4.17E-10,  avg # of iterations = 20.9

     total cpu time spent up to now is       33.8 secs

     End of band structure calculation

          k = 0.0000 0.0000 0.0000 (  1323 PWs)   bands (ev):

     1.0938   1.3105   1.6389   1.6389   1.6810   1.6810   2.0972   2.0972
     2.2637   2.3086   2.3086   7.5768   7.9044  20.5423  24.4953  24.8815

          k = 0.0833 0.0481 0.0000 (  1326 PWs)   bands (ev):

     1.1554   1.3610   1.6178   1.6604   1.6958   1.7359   2.0508   2.0779
     2.2329   2.3092   2.4145   7.6790   8.1550  20.7588  22.4871  23.7471

          k = 0.1667 0.0962 0.0000 (  1322 PWs)   bands (ev):

     1.2571   1.4461   1.5611   1.6813   1.8547   1.8895   1.9015   2.0291
     2.0745   2.3073   2.9177   8.0095   8.8555  19.4367  21.3434  22.1813

          k = 0.2500 0.1443 0.0000 (  1332 PWs)   bands (ev):

     1.2046   1.3926   1.6536   1.6767   1.8492   1.9258   1.9679   2.0806
     2.1075   2.2994   3.8201   8.6307   9.9044  16.4558  20.7517  20.7926

          k = 0.3333 0.1925 0.0000 (  1342 PWs)   bands (ev):

     1.0881   1.2652   1.4680   1.8004   1.8055   1.9104   2.0646   2.2880
     2.3174   2.3372   5.1092   9.6108  11.2095  13.6681  17.8974  19.0369

          k = 0.4167 0.2406 0.0000 (  1330 PWs)   bands (ev):

     0.9953   1.1701   1.3285   1.7142   1.8704   1.9097   2.2237   2.2782
     2.4968   2.5153   6.7544  10.6963  11.4222  12.6620  15.3202  17.0146

          k = 0.5000 0.2887 0.0000 (  1324 PWs)   bands (ev):

     0.9609   1.1355   1.2802   1.6835   1.8560   1.9474   2.2743   2.2797
     2.5636   2.5830   8.5498   8.9209  12.5108  13.5051  13.6640  15.8210

          k = 0.4444 0.3849 0.0000 (  1312 PWs)   bands (ev):

     1.0731   1.2535   1.3058   1.6959   1.8153   1.9453   2.2258   2.2262
     2.4702   2.4810   8.8650   9.1282  12.7934  13.6532  13.9358  15.9680

          k = 0.3889 0.4811 0.0000 (  1322 PWs)   bands (ev):

     1.3652   1.3653   1.5424   1.7171   1.7294   1.9305   2.0184   2.1251
     2.2618   2.3224   9.7251   9.7256  13.5749  13.6305  14.4139  14.7176

          k = 0.3333 0.5774 0.0000 (  1308 PWs)   bands (ev):

     1.3978   1.6903   1.6903   1.7032   1.7032   1.7648   1.9281   2.0744
     2.1944   2.1944  10.7149  10.7149  11.1990  14.8675  15.1945  15.1945

          k = 0.2917 0.5052 0.0000 (  1324 PWs)   bands (ev):

     1.3931   1.5547   1.5927   1.6731   1.7602   1.8941   1.9472   2.0874
     2.0973   2.3451   8.9397  11.7589  12.2520  13.1225  14.5826  16.2207

          k = 0.2500 0.4330 0.0000 (  1324 PWs)   bands (ev):

     1.4141   1.4455   1.4991   1.6643   1.8208   1.8457   1.9678   2.0778
     2.1462   2.4479   7.2078  11.4496  13.0931  13.1057  13.6617  17.5476

          k = 0.2083 0.3608 0.0000 (  1314 PWs)   bands (ev):

     1.4012   1.4501   1.4915   1.6976   1.7264   1.8429   1.9325   2.1077
     2.1997   2.4188   5.6924  10.0880  11.7252  14.7167  15.2850  19.1610

          k = 0.1667 0.2887 0.0000 (  1330 PWs)   bands (ev):

     1.4110   1.4316   1.6309   1.6312   1.7202   1.7724   2.0090   2.0542
     2.2466   2.2608   4.4252   9.0594  10.4954  16.6004  17.1002  21.0242

          k = 0.1250 0.2165 0.0000 (  1340 PWs)   bands (ev):

     1.3755   1.4452   1.5940   1.6170   1.8160   1.8747   1.9491   2.0314
     2.0737   2.2814   3.4352   8.3457   9.4497  18.6956  19.0736  21.7725

          k = 0.0833 0.1443 0.0000 (  1323 PWs)   bands (ev):

     1.2563   1.4267   1.5884   1.6255   1.8178   1.8256   1.9815   1.9959
     2.1430   2.3017   2.7503   7.8960   8.6297  20.9375  21.1594  21.1691

          k = 0.0417 0.0722 0.0000 (  1327 PWs)   bands (ev):

     1.1412   1.3500   1.6218   1.6648   1.6828   1.7216   2.0646   2.0802
     2.2515   2.3085   2.3758   7.6531   8.0933  20.7054  23.2145  23.2596

          k = 0.0000 0.0000 0.0000 (  1323 PWs)   bands (ev):

     1.0938   1.3105   1.6389   1.6389   1.6810   1.6810   2.0972   2.0972
     2.2637   2.3086   2.3086   7.5768   7.9044  20.5423  24.4953  24.8815

          k = 0.0000 0.0000 0.0877 (  1324 PWs)   bands (ev):

     1.1084   1.2967   1.6380   1.6380   1.6752   1.6752   2.1151   2.1151
     2.2976   2.2976   2.4186   6.0903   9.6517  19.0889  24.5147  24.9883

          k = 0.0000 0.0000 0.1754 (  1318 PWs)   bands (ev):

     1.1483   1.2577   1.6390   1.6390   1.6613   1.6613   2.1609   2.1609
     2.2654   2.2654   2.8836   4.7290  11.7897  16.6269  24.5821  25.1012

          k = 0.0000 0.0000 0.2632 (  1306 PWs)   bands (ev):

     1.2031   1.2031   1.6471   1.6471   1.6471   1.6471   2.2164   2.2164
     2.2164   2.2164   3.6561   3.6561  14.1355  14.1355  24.7749  24.7749

          k = 0.0714 0.0412 0.2632 (  1320 PWs)   bands (ev):

     1.2485   1.2485   1.6289   1.6289   1.6873   1.6873   2.1559   2.1559
     2.2101   2.2101   3.7918   3.7918  14.2565  14.2565  23.8877  23.8877

          k = 0.1429 0.0825 0.2632 (  1326 PWs)   bands (ev):

     1.3389   1.3389   1.5969   1.5969   1.8013   1.8013   2.0280   2.0280
     2.1936   2.1936   4.1764   4.1764  14.6118  14.6118  21.4777  21.4777

          k = 0.2143 0.1237 0.2632 (  1324 PWs)   bands (ev):

     1.3387   1.3387   1.5931   1.5931   1.9579   1.9579   1.9636   1.9636
     2.1775   2.1775   4.7980   4.7980  15.1732  15.1732  18.9579  18.9579

          k = 0.2857 0.1650 0.2632 (  1326 PWs)   bands (ev):

     1.2499   1.2499   1.5191   1.5191   2.0465   2.0465   2.0795   2.0795
     2.2320   2.2320   5.6749   5.6749  15.7298  15.7298  16.7252  16.7252

          k = 0.3571 0.2062 0.2632 (  1334 PWs)   bands (ev):

     1.1524   1.1524   1.4166   1.4166   2.0781   2.0781   2.1769   2.1769
     2.3949   2.3949   6.8170   6.8170  14.0844  14.0844  16.9874  16.9874

          k = 0.4286 0.2474 0.2632 (  1338 PWs)   bands (ev):

     1.0819   1.0819   1.3446   1.3446   2.0639   2.0639   2.2684   2.2684
     2.5257   2.5257   8.1927   8.1927  12.0420  12.0420  17.8634  17.8634

          k = 0.5000 0.2887 0.2632 (  1340 PWs)   bands (ev):

     1.0564   1.0564   1.3193   1.3193   2.0581   2.0581   2.3001   2.3001
     2.5741   2.5741   9.3302   9.3302  10.6761  10.6761  18.3228  18.3228

          k = 0.4583 0.3608 0.2632 (  1342 PWs)   bands (ev):

     1.1227   1.1227   1.3370   1.3370   2.0145   2.0145   2.3057   2.3057
     2.5026   2.5026   9.5269   9.5269  10.7594  10.7594  18.3437  18.3437

          k = 0.4167 0.4330 0.2632 (  1340 PWs)   bands (ev):

     1.3046   1.3046   1.3875   1.3875   1.9109   1.9109   2.2943   2.2943
     2.3314   2.3314  10.0822  10.0822  11.0204  11.0204  16.4844  16.4844

          k = 0.3750 0.5052 0.2632 (  1312 PWs)   bands (ev):

     1.4517   1.4517   1.5496   1.5496   1.8028   1.8028   2.0845   2.0845
     2.2988   2.2988  10.9097  10.9097  11.4967  11.4967  14.2676  14.2676

          k = 0.3333 0.5774 0.2632 (  1314 PWs)   bands (ev):

     1.4950   1.4950   1.6515   1.6515   1.8312   1.8312   1.9132   1.9132
     2.2839   2.2839  11.7843  11.7843  12.0309  12.0309  12.5424  12.5424

          k = 0.3000 0.5196 0.2632 (  1320 PWs)   bands (ev):

     1.4676   1.4676   1.6354   1.6354   1.7827   1.7827   1.9842   1.9842
     2.3084   2.3084  10.5150  10.5150  12.7527  12.7527  13.2997  13.2997

          k = 0.2667 0.4619 0.2632 (  1332 PWs)   bands (ev):

     1.4267   1.4267   1.5759   1.5759   1.8118   1.8118   1.9940   1.9940
     2.3719   2.3719   9.0969   9.0969  13.7318  13.7318  14.3744  14.3744

          k = 0.2333 0.4041 0.2632 (  1322 PWs)   bands (ev):

     1.4050   1.4050   1.5364   1.5364   1.8424   1.8424   1.9781   1.9781
     2.4088   2.4088   7.8142   7.8142  14.8953  14.8953  15.5336  15.5336

          k = 0.2000 0.3464 0.2632 (  1342 PWs)   bands (ev):

     1.4088   1.4088   1.5322   1.5322   1.8149   1.8149   2.0049   2.0049
     2.3821   2.3821   6.6930   6.6930  16.2052  16.2052  16.4145  16.4145

          k = 0.1667 0.2887 0.2632 (  1326 PWs)   bands (ev):

     1.4347   1.4347   1.5389   1.5389   1.7834   1.7834   2.0448   2.0448
     2.2955   2.2955   5.7496   5.7496  15.9444  15.9444  17.7860  17.7860

          k = 0.1333 0.2309 0.2632 (  1318 PWs)   bands (ev):

     1.4585   1.4585   1.5231   1.5231   1.8122   1.8122   2.0445   2.0445
     2.2005   2.2005   4.9917   4.9917  15.3414  15.3414  19.4535  19.4535

          k = 0.1000 0.1732 0.2632 (  1330 PWs)   bands (ev):

     1.4016   1.4016   1.5531   1.5531   1.8428   1.8428   1.9979   1.9979
     2.1856   2.1856   4.4140   4.4140  14.8301  14.8301  21.2309  21.2309

          k = 0.0667 0.1155 0.2632 (  1326 PWs)   bands (ev):

     1.3108   1.3108   1.5999   1.5999   1.7521   1.7521   2.0791   2.0791
     2.2003   2.2003   4.0016   4.0016  14.4492  14.4492  23.0084  23.0084

          k = 0.0333 0.0577 0.2632 (  1322 PWs)   bands (ev):

     1.2336   1.2336   1.6344   1.6344   1.6738   1.6738   2.1757   2.1757
     2.2122   2.2122   3.7454   3.7454  14.2147  14.2147  24.3377  24.3377

          k = 0.0000 0.0000 0.2632 (  1306 PWs)   bands (ev):

     1.2031   1.2031   1.6471   1.6471   1.6471   1.6471   2.2164   2.2164
     2.2164   2.2164   3.6561   3.6561  14.1355  14.1355  24.7749  24.7749

          k = 0.5000 0.2887 0.2632 (  1340 PWs)   bands (ev):

     1.0564   1.0564   1.3193   1.3193   2.0581   2.0581   2.3001   2.3001
     2.5741   2.5741   9.3302   9.3302  10.6761  10.6761  18.3228  18.3228

          k = 0.5000 0.2887 0.1754 (  1336 PWs)   bands (ev):

     1.0130   1.0878   1.2752   1.4407   1.9555   2.1625   2.1642   2.3565
     2.5692   2.5787   9.0104   9.2110  11.1412  11.1415  17.0312  17.7613

          k = 0.5000 0.2887 0.0877 (  1340 PWs)   bands (ev):

     0.9754   1.1166   1.2771   1.5986   1.8823   2.0137   2.2444   2.3218
     2.5651   2.5818   8.6733   8.9995  12.0054  12.1857  15.2478  16.4872

          k = 0.5000 0.2887 0.0000 (  1324 PWs)   bands (ev):

     0.9609   1.1355   1.2802   1.6835   1.8560   1.9474   2.2743   2.2797
     2.5636   2.5830   8.5498   8.9209  12.5108  13.5051  13.6640  15.8210

          k = 0.3333 0.5774 0.0000 (  1308 PWs)   bands (ev):

     1.3978   1.6903   1.6903   1.7032   1.7032   1.7648   1.9281   2.0744
     2.1944   2.1944  10.7149  10.7149  11.1990  14.8675  15.1945  15.1945

          k = 0.3333 0.5774 0.0877 (  1320 PWs)   bands (ev):

     1.4325   1.6001   1.6001   1.7627   1.7759   1.7759   1.9236   2.0373
     2.2171   2.2171  10.8437  10.8437  11.3598  14.0517  14.0517  14.3714

          k = 0.3333 0.5774 0.1754 (  1335 PWs)   bands (ev):

     1.5235   1.5235   1.5276   1.7394   1.8188   1.8188   1.9137   1.9572
     2.2619   2.2619  11.2327  11.2327  11.8239  12.8575  12.8575  13.4411

          k = 0.3333 0.5774 0.2632 (  1314 PWs)   bands (ev):

     1.4950   1.4950   1.6515   1.6515   1.8312   1.8312   1.9132   1.9132
     2.2839   2.2839  11.7843  11.7843  12.0309  12.0309  12.5424  12.5424

     Writing output data file pwscf.save

     init_run     :      0.64s CPU      0.54s WALL (       1 calls)
     electrons    :     54.27s CPU     33.15s WALL (       1 calls)

     Called by init_run:
     wfcinit      :      0.00s CPU      0.00s WALL (       1 calls)
     wfcinit:atom :      0.09s CPU      0.05s WALL (      50 calls)
     wfcinit:wfcr :      3.36s CPU      2.04s WALL (      50 calls)
     potinit      :      0.05s CPU      0.04s WALL (       1 calls)

     Called by electrons:
     c_bands      :     54.25s CPU     33.14s WALL (       1 calls)
     v_of_rho     :      0.02s CPU      0.03s WALL (       1 calls)
     v_h          :      0.00s CPU      0.00s WALL (       1 calls)
     v_xc         :      0.02s CPU      0.02s WALL (       1 calls)
     newd         :      0.03s CPU      0.10s WALL (       1 calls)

     Called by c_bands:
     init_us_2    :      0.12s CPU      0.06s WALL (      50 calls)
     cegterg      :     49.73s CPU     30.50s WALL (      70 calls)

     Called by sum_band:

     Called by *egterg:
     h_psi        :     41.78s CPU     24.78s WALL (    1164 calls)
     s_psi        :      0.89s CPU      0.41s WALL (    1164 calls)
     g_psi        :      0.19s CPU      0.17s WALL (    1044 calls)
     cdiaghg      :      4.95s CPU      4.37s WALL (    1094 calls)
     cegterg:over :      1.86s CPU      1.25s WALL (    1044 calls)
     cegterg:upda :      1.81s CPU      0.79s WALL (    1044 calls)
     cegterg:last :      1.03s CPU      0.37s WALL (     239 calls)

     Called by h_psi:
     h_psi:pot    :     41.56s CPU     24.66s WALL (    1164 calls)
     h_psi:calbec :      0.83s CPU      1.11s WALL (    1164 calls)
     vloc_psi     :     39.78s CPU     22.96s WALL (    1164 calls)
     add_vuspsi   :      0.95s CPU      0.56s WALL (    1164 calls)

     General routines
     calbec       :      0.83s CPU      1.09s WALL (    1164 calls)
     fft          :      0.02s CPU      0.01s WALL (      13 calls)
     ffts         :      0.02s CPU      0.01s WALL (       1 calls)
     fftw         :     36.61s CPU     21.09s WALL (   23212 calls)
     interpolate  :      0.02s CPU      0.01s WALL (       1 calls)
     davcio       :      0.00s CPU      0.01s WALL (      50 calls)

     Parallel routines
     fft_scatter  :      2.05s CPU      1.18s WALL (   23226 calls)

     PWSCF        :    55.38s CPU        34.11s WALL


   This run was terminated on:  16:25:54  26Feb2021            

=------------------------------------------------------------------------------=
   JOB DONE.
=------------------------------------------------------------------------------=
