
     Program PWSCF v.6.0 (svn rev. 13079) starts on 25Feb2021 at 21:11:41 

     This program is part of the open-source Quantum ESPRESSO suite
     for quantum simulation of materials; please cite
         "P. Giannozzi et al., J. Phys.:Condens. Matter 21 395502 (2009);
          URL http://www.quantum-espresso.org", 
     in publications or presentations arising from this work. More details at
     http://www.quantum-espresso.org/quote

     Parallel version (MPI), running on     1 processors
     Reading input from espresso.pwi
Warning: card &IONS ignored
Warning: card / ignored
Warning: card &CELL ignored
Warning: card / ignored

     Current dimensions of program PWSCF are:
     Max number of different atomic species (ntypx) = 10
     Max number of k-points (npk) =  40000
     Max angular momentum in pseudopotentials (lmaxx) =  3
     Message from routine input:
     WARNING: "startingwfc" set to atomic+random may spoil restart

     Atomic positions and unit cell read from directory:
     ./pwscf.save/


     IMPORTANT: XC functional enforced from input :
     Exchange-correlation      = PBE ( 1  4  3  4 0 0)
     Any further DFT definition will be discarded
     Please, verify this is what you really want


     Subspace diagonalization in iterative solution of the eigenvalue problem:
     a serial algorithm will be used


     G-vector sticks info
     --------------------
     sticks:   dense  smooth     PW     G-vecs:    dense   smooth      PW
     Sum         571     467    151                 8685     6339    1157



     bravais-lattice index     =            0
     lattice parameter (alat)  =       6.2009  a.u.
     unit-cell volume          =     183.5441 (a.u.)^3
     number of atoms/cell      =            1
     number of atomic types    =            1
     number of electrons       =        15.00
     number of Kohn-Sham states=           12
     kinetic-energy cutoff     =      40.0000  Ry
     charge density cutoff     =     200.0000  Ry
     Exchange-correlation      = PBE ( 1  4  3  4 0 0)

     celldm(1)=   6.200891  celldm(2)=   0.000000  celldm(3)=   0.000000
     celldm(4)=   0.000000  celldm(5)=   0.000000  celldm(6)=   0.000000

     crystal axes: (cart. coord. in units of alat)
               a(1) = (  -0.577350   0.577350   0.577350 )  
               a(2) = (   0.577350  -0.577350   0.577350 )  
               a(3) = (   0.577350   0.577350  -0.577350 )  

     reciprocal axes: (cart. coord. in units 2 pi/alat)
               b(1) = (  0.000000  0.866025  0.866025 )  
               b(2) = (  0.866025  0.000000  0.866025 )  
               b(3) = (  0.866025  0.866025  0.000000 )  


     PseudoPot. # 1 for Sb read from file:
     /home/inukai/tango/tests/1element/qe_fit_v2_Sb/../pseudo/sb_pbe_v1.4.uspp.F.UPF
     MD5 check sum: 9bc50dfb53373b713f5709b9110fe27f
     Pseudo is Ultrasoft + core correction, Zval = 15.0
     Generated by new atomic code, or converted to UPF format
     Using radial grid of  891 points,  6 beta functions with: 
                l(1) =   0
                l(2) =   0
                l(3) =   1
                l(4) =   1
                l(5) =   2
                l(6) =   2
     Q(r) pseudized with  8 coefficients,  rinner =    1.350   1.350   1.350
                                                       1.350   1.350

     atomic species   valence    mass     pseudopotential
        Sb            15.00   121.76000     Sb( 1.00)

     48 Sym. Ops., with inversion, found


                                    s                        frac. trans.

      isym =  1     identity                                     

 cryst.   s( 1) = (     1          0          0      )
                  (     0          1          0      )
                  (     0          0          1      )

 cart.    s( 1) = (  1.0000000  0.0000000  0.0000000 )
                  (  0.0000000  1.0000000  0.0000000 )
                  (  0.0000000  0.0000000  1.0000000 )


      isym =  2     180 deg rotation - cart. axis [0,0,1]        

 cryst.   s( 2) = (     0          1          0      )
                  (     1          0          0      )
                  (    -1         -1         -1      )

 cart.    s( 2) = ( -1.0000000  0.0000000  0.0000000 )
                  (  0.0000000 -1.0000000  0.0000000 )
                  (  0.0000000  0.0000000  1.0000000 )


      isym =  3     180 deg rotation - cart. axis [0,1,0]        

 cryst.   s( 3) = (     0          0          1      )
                  (    -1         -1         -1      )
                  (     1          0          0      )

 cart.    s( 3) = ( -1.0000000  0.0000000  0.0000000 )
                  (  0.0000000  1.0000000  0.0000000 )
                  (  0.0000000  0.0000000 -1.0000000 )


      isym =  4     180 deg rotation - cart. axis [1,0,0]        

 cryst.   s( 4) = (    -1         -1         -1      )
                  (     0          0          1      )
                  (     0          1          0      )

 cart.    s( 4) = (  1.0000000  0.0000000  0.0000000 )
                  (  0.0000000 -1.0000000  0.0000000 )
                  (  0.0000000  0.0000000 -1.0000000 )


      isym =  5     180 deg rotation - cart. axis [1,1,0]        

 cryst.   s( 5) = (    -1          0          0      )
                  (     0         -1          0      )
                  (     1          1          1      )

 cart.    s( 5) = (  0.0000000  1.0000000  0.0000000 )
                  (  1.0000000  0.0000000  0.0000000 )
                  (  0.0000000  0.0000000 -1.0000000 )


      isym =  6     180 deg rotation - cart. axis [1,-1,0]       

 cryst.   s( 6) = (     0         -1          0      )
                  (    -1          0          0      )
                  (     0          0         -1      )

 cart.    s( 6) = (  0.0000000 -1.0000000  0.0000000 )
                  ( -1.0000000  0.0000000  0.0000000 )
                  (  0.0000000  0.0000000 -1.0000000 )


      isym =  7      90 deg rotation - cart. axis [0,0,-1]       

 cryst.   s( 7) = (     1          1          1      )
                  (     0          0         -1      )
                  (    -1          0          0      )

 cart.    s( 7) = (  0.0000000  1.0000000  0.0000000 )
                  ( -1.0000000  0.0000000  0.0000000 )
                  (  0.0000000  0.0000000  1.0000000 )


      isym =  8      90 deg rotation - cart. axis [0,0,1]        

 cryst.   s( 8) = (     0          0         -1      )
                  (     1          1          1      )
                  (     0         -1          0      )

 cart.    s( 8) = (  0.0000000 -1.0000000  0.0000000 )
                  (  1.0000000  0.0000000  0.0000000 )
                  (  0.0000000  0.0000000  1.0000000 )


      isym =  9     180 deg rotation - cart. axis [1,0,1]        

 cryst.   s( 9) = (    -1          0          0      )
                  (     1          1          1      )
                  (     0          0         -1      )

 cart.    s( 9) = (  0.0000000  0.0000000  1.0000000 )
                  (  0.0000000 -1.0000000  0.0000000 )
                  (  1.0000000  0.0000000  0.0000000 )


      isym = 10     180 deg rotation - cart. axis [-1,0,1]       

 cryst.   s(10) = (     0          0         -1      )
                  (     0         -1          0      )
                  (    -1          0          0      )

 cart.    s(10) = (  0.0000000  0.0000000 -1.0000000 )
                  (  0.0000000 -1.0000000  0.0000000 )
                  ( -1.0000000  0.0000000  0.0000000 )


      isym = 11      90 deg rotation - cart. axis [0,1,0]        

 cryst.   s(11) = (     1          1          1      )
                  (    -1          0          0      )
                  (     0         -1          0      )

 cart.    s(11) = (  0.0000000  0.0000000  1.0000000 )
                  (  0.0000000  1.0000000  0.0000000 )
                  ( -1.0000000  0.0000000  0.0000000 )


      isym = 12      90 deg rotation - cart. axis [0,-1,0]       

 cryst.   s(12) = (     0         -1          0      )
                  (     0          0         -1      )
                  (     1          1          1      )

 cart.    s(12) = (  0.0000000  0.0000000 -1.0000000 )
                  (  0.0000000  1.0000000  0.0000000 )
                  (  1.0000000  0.0000000  0.0000000 )


      isym = 13     180 deg rotation - cart. axis [0,1,1]        

 cryst.   s(13) = (     1          1          1      )
                  (     0         -1          0      )
                  (     0          0         -1      )

 cart.    s(13) = ( -1.0000000  0.0000000  0.0000000 )
                  (  0.0000000  0.0000000  1.0000000 )
                  (  0.0000000  1.0000000  0.0000000 )


      isym = 14     180 deg rotation - cart. axis [0,1,-1]       

 cryst.   s(14) = (    -1          0          0      )
                  (     0          0         -1      )
                  (     0         -1          0      )

 cart.    s(14) = ( -1.0000000  0.0000000  0.0000000 )
                  (  0.0000000  0.0000000 -1.0000000 )
                  (  0.0000000 -1.0000000  0.0000000 )


      isym = 15      90 deg rotation - cart. axis [-1,0,0]       

 cryst.   s(15) = (     0         -1          0      )
                  (     1          1          1      )
                  (    -1          0          0      )

 cart.    s(15) = (  1.0000000  0.0000000  0.0000000 )
                  (  0.0000000  0.0000000  1.0000000 )
                  (  0.0000000 -1.0000000  0.0000000 )


      isym = 16      90 deg rotation - cart. axis [1,0,0]        

 cryst.   s(16) = (     0          0         -1      )
                  (    -1          0          0      )
                  (     1          1          1      )

 cart.    s(16) = (  1.0000000  0.0000000  0.0000000 )
                  (  0.0000000  0.0000000 -1.0000000 )
                  (  0.0000000  1.0000000  0.0000000 )


      isym = 17     120 deg rotation - cart. axis [-1,-1,-1]     

 cryst.   s(17) = (     0          0          1      )
                  (     1          0          0      )
                  (     0          1          0      )

 cart.    s(17) = (  0.0000000  1.0000000  0.0000000 )
                  (  0.0000000  0.0000000  1.0000000 )
                  (  1.0000000  0.0000000  0.0000000 )


      isym = 18     120 deg rotation - cart. axis [-1,1,1]       

 cryst.   s(18) = (     1          0          0      )
                  (     0          0          1      )
                  (    -1         -1         -1      )

 cart.    s(18) = (  0.0000000 -1.0000000  0.0000000 )
                  (  0.0000000  0.0000000  1.0000000 )
                  ( -1.0000000  0.0000000  0.0000000 )


      isym = 19     120 deg rotation - cart. axis [1,1,-1]       

 cryst.   s(19) = (     0          1          0      )
                  (    -1         -1         -1      )
                  (     0          0          1      )

 cart.    s(19) = (  0.0000000  1.0000000  0.0000000 )
                  (  0.0000000  0.0000000 -1.0000000 )
                  ( -1.0000000  0.0000000  0.0000000 )


      isym = 20     120 deg rotation - cart. axis [1,-1,1]       

 cryst.   s(20) = (    -1         -1         -1      )
                  (     0          1          0      )
                  (     1          0          0      )

 cart.    s(20) = (  0.0000000 -1.0000000  0.0000000 )
                  (  0.0000000  0.0000000 -1.0000000 )
                  (  1.0000000  0.0000000  0.0000000 )


      isym = 21     120 deg rotation - cart. axis [1,1,1]        

 cryst.   s(21) = (     0          1          0      )
                  (     0          0          1      )
                  (     1          0          0      )

 cart.    s(21) = (  0.0000000  0.0000000  1.0000000 )
                  (  1.0000000  0.0000000  0.0000000 )
                  (  0.0000000  1.0000000  0.0000000 )


      isym = 22     120 deg rotation - cart. axis [-1,1,-1]      

 cryst.   s(22) = (     0          0          1      )
                  (     0          1          0      )
                  (    -1         -1         -1      )

 cart.    s(22) = (  0.0000000  0.0000000  1.0000000 )
                  ( -1.0000000  0.0000000  0.0000000 )
                  (  0.0000000 -1.0000000  0.0000000 )


      isym = 23     120 deg rotation - cart. axis [1,-1,-1]      

 cryst.   s(23) = (     1          0          0      )
                  (    -1         -1         -1      )
                  (     0          1          0      )

 cart.    s(23) = (  0.0000000  0.0000000 -1.0000000 )
                  ( -1.0000000  0.0000000  0.0000000 )
                  (  0.0000000  1.0000000  0.0000000 )


      isym = 24     120 deg rotation - cart. axis [-1,-1,1]      

 cryst.   s(24) = (    -1         -1         -1      )
                  (     1          0          0      )
                  (     0          0          1      )

 cart.    s(24) = (  0.0000000  0.0000000 -1.0000000 )
                  (  1.0000000  0.0000000  0.0000000 )
                  (  0.0000000 -1.0000000  0.0000000 )


      isym = 25     inversion                                    

 cryst.   s(25) = (    -1          0          0      )
                  (     0         -1          0      )
                  (     0          0         -1      )

 cart.    s(25) = ( -1.0000000  0.0000000  0.0000000 )
                  (  0.0000000 -1.0000000  0.0000000 )
                  (  0.0000000  0.0000000 -1.0000000 )


      isym = 26     inv. 180 deg rotation - cart. axis [0,0,1]   

 cryst.   s(26) = (     0         -1          0      )
                  (    -1          0          0      )
                  (     1          1          1      )

 cart.    s(26) = (  1.0000000  0.0000000  0.0000000 )
                  (  0.0000000  1.0000000  0.0000000 )
                  (  0.0000000  0.0000000 -1.0000000 )


      isym = 27     inv. 180 deg rotation - cart. axis [0,1,0]   

 cryst.   s(27) = (     0          0         -1      )
                  (     1          1          1      )
                  (    -1          0          0      )

 cart.    s(27) = (  1.0000000  0.0000000  0.0000000 )
                  (  0.0000000 -1.0000000  0.0000000 )
                  (  0.0000000  0.0000000  1.0000000 )


      isym = 28     inv. 180 deg rotation - cart. axis [1,0,0]   

 cryst.   s(28) = (     1          1          1      )
                  (     0          0         -1      )
                  (     0         -1          0      )

 cart.    s(28) = ( -1.0000000  0.0000000  0.0000000 )
                  (  0.0000000  1.0000000  0.0000000 )
                  (  0.0000000  0.0000000  1.0000000 )


      isym = 29     inv. 180 deg rotation - cart. axis [1,1,0]   

 cryst.   s(29) = (     1          0          0      )
                  (     0          1          0      )
                  (    -1         -1         -1      )

 cart.    s(29) = (  0.0000000 -1.0000000  0.0000000 )
                  ( -1.0000000  0.0000000  0.0000000 )
                  (  0.0000000  0.0000000  1.0000000 )


      isym = 30     inv. 180 deg rotation - cart. axis [1,-1,0]  

 cryst.   s(30) = (     0          1          0      )
                  (     1          0          0      )
                  (     0          0          1      )

 cart.    s(30) = (  0.0000000  1.0000000  0.0000000 )
                  (  1.0000000  0.0000000  0.0000000 )
                  (  0.0000000  0.0000000  1.0000000 )


      isym = 31     inv.  90 deg rotation - cart. axis [0,0,-1]  

 cryst.   s(31) = (    -1         -1         -1      )
                  (     0          0          1      )
                  (     1          0          0      )

 cart.    s(31) = (  0.0000000 -1.0000000  0.0000000 )
                  (  1.0000000  0.0000000  0.0000000 )
                  (  0.0000000  0.0000000 -1.0000000 )


      isym = 32     inv.  90 deg rotation - cart. axis [0,0,1]   

 cryst.   s(32) = (     0          0          1      )
                  (    -1         -1         -1      )
                  (     0          1          0      )

 cart.    s(32) = (  0.0000000  1.0000000  0.0000000 )
                  ( -1.0000000  0.0000000  0.0000000 )
                  (  0.0000000  0.0000000 -1.0000000 )


      isym = 33     inv. 180 deg rotation - cart. axis [1,0,1]   

 cryst.   s(33) = (     1          0          0      )
                  (    -1         -1         -1      )
                  (     0          0          1      )

 cart.    s(33) = (  0.0000000  0.0000000 -1.0000000 )
                  (  0.0000000  1.0000000  0.0000000 )
                  ( -1.0000000  0.0000000  0.0000000 )


      isym = 34     inv. 180 deg rotation - cart. axis [-1,0,1]  

 cryst.   s(34) = (     0          0          1      )
                  (     0          1          0      )
                  (     1          0          0      )

 cart.    s(34) = (  0.0000000  0.0000000  1.0000000 )
                  (  0.0000000  1.0000000  0.0000000 )
                  (  1.0000000  0.0000000  0.0000000 )


      isym = 35     inv.  90 deg rotation - cart. axis [0,1,0]   

 cryst.   s(35) = (    -1         -1         -1      )
                  (     1          0          0      )
                  (     0          1          0      )

 cart.    s(35) = (  0.0000000  0.0000000 -1.0000000 )
                  (  0.0000000 -1.0000000  0.0000000 )
                  (  1.0000000  0.0000000  0.0000000 )


      isym = 36     inv.  90 deg rotation - cart. axis [0,-1,0]  

 cryst.   s(36) = (     0          1          0      )
                  (     0          0          1      )
                  (    -1         -1         -1      )

 cart.    s(36) = (  0.0000000  0.0000000  1.0000000 )
                  (  0.0000000 -1.0000000  0.0000000 )
                  ( -1.0000000  0.0000000  0.0000000 )


      isym = 37     inv. 180 deg rotation - cart. axis [0,1,1]   

 cryst.   s(37) = (    -1         -1         -1      )
                  (     0          1          0      )
                  (     0          0          1      )

 cart.    s(37) = (  1.0000000  0.0000000  0.0000000 )
                  (  0.0000000  0.0000000 -1.0000000 )
                  (  0.0000000 -1.0000000  0.0000000 )


      isym = 38     inv. 180 deg rotation - cart. axis [0,1,-1]  

 cryst.   s(38) = (     1          0          0      )
                  (     0          0          1      )
                  (     0          1          0      )

 cart.    s(38) = (  1.0000000  0.0000000  0.0000000 )
                  (  0.0000000  0.0000000  1.0000000 )
                  (  0.0000000  1.0000000  0.0000000 )


      isym = 39     inv.  90 deg rotation - cart. axis [-1,0,0]  

 cryst.   s(39) = (     0          1          0      )
                  (    -1         -1         -1      )
                  (     1          0          0      )

 cart.    s(39) = ( -1.0000000  0.0000000  0.0000000 )
                  (  0.0000000  0.0000000 -1.0000000 )
                  (  0.0000000  1.0000000  0.0000000 )


      isym = 40     inv.  90 deg rotation - cart. axis [1,0,0]   

 cryst.   s(40) = (     0          0          1      )
                  (     1          0          0      )
                  (    -1         -1         -1      )

 cart.    s(40) = ( -1.0000000  0.0000000  0.0000000 )
                  (  0.0000000  0.0000000  1.0000000 )
                  (  0.0000000 -1.0000000  0.0000000 )


      isym = 41     inv. 120 deg rotation - cart. axis [-1,-1,-1]

 cryst.   s(41) = (     0          0         -1      )
                  (    -1          0          0      )
                  (     0         -1          0      )

 cart.    s(41) = (  0.0000000 -1.0000000  0.0000000 )
                  (  0.0000000  0.0000000 -1.0000000 )
                  ( -1.0000000  0.0000000  0.0000000 )


      isym = 42     inv. 120 deg rotation - cart. axis [-1,1,1]  

 cryst.   s(42) = (    -1          0          0      )
                  (     0          0         -1      )
                  (     1          1          1      )

 cart.    s(42) = (  0.0000000  1.0000000  0.0000000 )
                  (  0.0000000  0.0000000 -1.0000000 )
                  (  1.0000000  0.0000000  0.0000000 )


      isym = 43     inv. 120 deg rotation - cart. axis [1,1,-1]  

 cryst.   s(43) = (     0         -1          0      )
                  (     1          1          1      )
                  (     0          0         -1      )

 cart.    s(43) = (  0.0000000 -1.0000000  0.0000000 )
                  (  0.0000000  0.0000000  1.0000000 )
                  (  1.0000000  0.0000000  0.0000000 )


      isym = 44     inv. 120 deg rotation - cart. axis [1,-1,1]  

 cryst.   s(44) = (     1          1          1      )
                  (     0         -1          0      )
                  (    -1          0          0      )

 cart.    s(44) = (  0.0000000  1.0000000  0.0000000 )
                  (  0.0000000  0.0000000  1.0000000 )
                  ( -1.0000000  0.0000000  0.0000000 )


      isym = 45     inv. 120 deg rotation - cart. axis [1,1,1]   

 cryst.   s(45) = (     0         -1          0      )
                  (     0          0         -1      )
                  (    -1          0          0      )

 cart.    s(45) = (  0.0000000  0.0000000 -1.0000000 )
                  ( -1.0000000  0.0000000  0.0000000 )
                  (  0.0000000 -1.0000000  0.0000000 )


      isym = 46     inv. 120 deg rotation - cart. axis [-1,1,-1] 

 cryst.   s(46) = (     0          0         -1      )
                  (     0         -1          0      )
                  (     1          1          1      )

 cart.    s(46) = (  0.0000000  0.0000000 -1.0000000 )
                  (  1.0000000  0.0000000  0.0000000 )
                  (  0.0000000  1.0000000  0.0000000 )


      isym = 47     inv. 120 deg rotation - cart. axis [1,-1,-1] 

 cryst.   s(47) = (    -1          0          0      )
                  (     1          1          1      )
                  (     0         -1          0      )

 cart.    s(47) = (  0.0000000  0.0000000  1.0000000 )
                  (  1.0000000  0.0000000  0.0000000 )
                  (  0.0000000 -1.0000000  0.0000000 )


      isym = 48     inv. 120 deg rotation - cart. axis [-1,-1,1] 

 cryst.   s(48) = (     1          1          1      )
                  (    -1          0          0      )
                  (     0          0         -1      )

 cart.    s(48) = (  0.0000000  0.0000000  1.0000000 )
                  ( -1.0000000  0.0000000  0.0000000 )
                  (  0.0000000  1.0000000  0.0000000 )


   Cartesian axes

     site n.     atom                  positions (alat units)
         1           Sb  tau(   1) = (   0.0000000   0.0000000   0.0000000  )

   Crystallographic axes

     site n.     atom                  positions (cryst. coord.)
         1           Sb  tau(   1) = (  0.0000000  0.0000000  0.0000000  )

     number of k points=    50  gaussian smearing, width (Ry)=  0.0010
                       cart. coord. in units 2pi/alat
        k(    1) = (   0.0000000   0.0000000   0.0000000), wk =   0.0400000
        k(    2) = (   0.0000000   0.0618590   0.0000000), wk =   0.0400000
        k(    3) = (   0.0000000   0.1237179   0.0000000), wk =   0.0400000
        k(    4) = (   0.0000000   0.1855769   0.0000000), wk =   0.0400000
        k(    5) = (   0.0000000   0.2474358   0.0000000), wk =   0.0400000
        k(    6) = (   0.0000000   0.3092948   0.0000000), wk =   0.0400000
        k(    7) = (   0.0000000   0.3711537   0.0000000), wk =   0.0400000
        k(    8) = (   0.0000000   0.4330127   0.0000000), wk =   0.0400000
        k(    9) = (   0.0000000   0.4948717   0.0000000), wk =   0.0400000
        k(   10) = (   0.0000000   0.5567306   0.0000000), wk =   0.0400000
        k(   11) = (   0.0000000   0.6185896   0.0000000), wk =   0.0400000
        k(   12) = (   0.0000000   0.6804485   0.0000000), wk =   0.0400000
        k(   13) = (   0.0000000   0.7423075   0.0000000), wk =   0.0400000
        k(   14) = (   0.0000000   0.8041664   0.0000000), wk =   0.0400000
        k(   15) = (   0.0000000   0.8660254   0.0000000), wk =   0.0400000
        k(   16) = (   0.0433013   0.8227241   0.0000000), wk =   0.0400000
        k(   17) = (   0.0866025   0.7794229   0.0000000), wk =   0.0400000
        k(   18) = (   0.1299038   0.7361216   0.0000000), wk =   0.0400000
        k(   19) = (   0.1732051   0.6928203   0.0000000), wk =   0.0400000
        k(   20) = (   0.2165064   0.6495191   0.0000000), wk =   0.0400000
        k(   21) = (   0.2598076   0.6062178   0.0000000), wk =   0.0400000
        k(   22) = (   0.3031089   0.5629165   0.0000000), wk =   0.0400000
        k(   23) = (   0.3464102   0.5196152   0.0000000), wk =   0.0400000
        k(   24) = (   0.3897114   0.4763140   0.0000000), wk =   0.0400000
        k(   25) = (   0.4330127   0.4330127   0.0000000), wk =   0.0400000
        k(   26) = (   0.3936479   0.3936479   0.0000000), wk =   0.0400000
        k(   27) = (   0.3542831   0.3542831   0.0000000), wk =   0.0400000
        k(   28) = (   0.3149183   0.3149183   0.0000000), wk =   0.0400000
        k(   29) = (   0.2755535   0.2755535   0.0000000), wk =   0.0400000
        k(   30) = (   0.2361887   0.2361887   0.0000000), wk =   0.0400000
        k(   31) = (   0.1968240   0.1968240   0.0000000), wk =   0.0400000
        k(   32) = (   0.1574592   0.1574592   0.0000000), wk =   0.0400000
        k(   33) = (   0.1180944   0.1180944   0.0000000), wk =   0.0400000
        k(   34) = (   0.0787296   0.0787296   0.0000000), wk =   0.0400000
        k(   35) = (   0.0393648   0.0393648   0.0000000), wk =   0.0400000
        k(   36) = (   0.0000000   0.0000000   0.0000000), wk =   0.0400000
        k(   37) = (   0.0309295   0.0309295   0.0309295), wk =   0.0400000
        k(   38) = (   0.0618590   0.0618590   0.0618590), wk =   0.0400000
        k(   39) = (   0.0927884   0.0927884   0.0927884), wk =   0.0400000
        k(   40) = (   0.1237179   0.1237179   0.1237179), wk =   0.0400000
        k(   41) = (   0.1546474   0.1546474   0.1546474), wk =   0.0400000
        k(   42) = (   0.1855769   0.1855769   0.1855769), wk =   0.0400000
        k(   43) = (   0.2165064   0.2165064   0.2165064), wk =   0.0400000
        k(   44) = (   0.2474358   0.2474358   0.2474358), wk =   0.0400000
        k(   45) = (   0.2783653   0.2783653   0.2783653), wk =   0.0400000
        k(   46) = (   0.3092948   0.3092948   0.3092948), wk =   0.0400000
        k(   47) = (   0.3402243   0.3402243   0.3402243), wk =   0.0400000
        k(   48) = (   0.3711537   0.3711537   0.3711537), wk =   0.0400000
        k(   49) = (   0.4020832   0.4020832   0.4020832), wk =   0.0400000
        k(   50) = (   0.4330127   0.4330127   0.4330127), wk =   0.0400000

                       cryst. coord.
        k(    1) = (   0.0000000   0.0000000   0.0000000), wk =   0.0400000
        k(    2) = (   0.0357143  -0.0357143   0.0357143), wk =   0.0400000
        k(    3) = (   0.0714286  -0.0714286   0.0714286), wk =   0.0400000
        k(    4) = (   0.1071429  -0.1071429   0.1071429), wk =   0.0400000
        k(    5) = (   0.1428571  -0.1428571   0.1428571), wk =   0.0400000
        k(    6) = (   0.1785714  -0.1785714   0.1785714), wk =   0.0400000
        k(    7) = (   0.2142857  -0.2142857   0.2142857), wk =   0.0400000
        k(    8) = (   0.2500000  -0.2500000   0.2500000), wk =   0.0400000
        k(    9) = (   0.2857143  -0.2857143   0.2857143), wk =   0.0400000
        k(   10) = (   0.3214286  -0.3214286   0.3214286), wk =   0.0400000
        k(   11) = (   0.3571429  -0.3571429   0.3571429), wk =   0.0400000
        k(   12) = (   0.3928571  -0.3928571   0.3928571), wk =   0.0400000
        k(   13) = (   0.4285714  -0.4285714   0.4285714), wk =   0.0400000
        k(   14) = (   0.4642857  -0.4642857   0.4642857), wk =   0.0400000
        k(   15) = (   0.5000000  -0.5000000   0.5000000), wk =   0.0400000
        k(   16) = (   0.4500000  -0.4500000   0.5000000), wk =   0.0400000
        k(   17) = (   0.4000000  -0.4000000   0.5000000), wk =   0.0400000
        k(   18) = (   0.3500000  -0.3500000   0.5000000), wk =   0.0400000
        k(   19) = (   0.3000000  -0.3000000   0.5000000), wk =   0.0400000
        k(   20) = (   0.2500000  -0.2500000   0.5000000), wk =   0.0400000
        k(   21) = (   0.2000000  -0.2000000   0.5000000), wk =   0.0400000
        k(   22) = (   0.1500000  -0.1500000   0.5000000), wk =   0.0400000
        k(   23) = (   0.1000000  -0.1000000   0.5000000), wk =   0.0400000
        k(   24) = (   0.0500000  -0.0500000   0.5000000), wk =   0.0400000
        k(   25) = (   0.0000000   0.0000000   0.5000000), wk =   0.0400000
        k(   26) = (   0.0000000   0.0000000   0.4545455), wk =   0.0400000
        k(   27) = (   0.0000000   0.0000000   0.4090909), wk =   0.0400000
        k(   28) = (   0.0000000   0.0000000   0.3636364), wk =   0.0400000
        k(   29) = (   0.0000000   0.0000000   0.3181818), wk =   0.0400000
        k(   30) = (   0.0000000   0.0000000   0.2727273), wk =   0.0400000
        k(   31) = (   0.0000000   0.0000000   0.2272727), wk =   0.0400000
        k(   32) = (   0.0000000   0.0000000   0.1818182), wk =   0.0400000
        k(   33) = (   0.0000000   0.0000000   0.1363636), wk =   0.0400000
        k(   34) = (   0.0000000   0.0000000   0.0909091), wk =   0.0400000
        k(   35) = (   0.0000000   0.0000000   0.0454545), wk =   0.0400000
        k(   36) = (   0.0000000   0.0000000   0.0000000), wk =   0.0400000
        k(   37) = (   0.0178571   0.0178571   0.0178571), wk =   0.0400000
        k(   38) = (   0.0357143   0.0357143   0.0357143), wk =   0.0400000
        k(   39) = (   0.0535714   0.0535714   0.0535714), wk =   0.0400000
        k(   40) = (   0.0714286   0.0714286   0.0714286), wk =   0.0400000
        k(   41) = (   0.0892857   0.0892857   0.0892857), wk =   0.0400000
        k(   42) = (   0.1071429   0.1071429   0.1071429), wk =   0.0400000
        k(   43) = (   0.1250000   0.1250000   0.1250000), wk =   0.0400000
        k(   44) = (   0.1428571   0.1428571   0.1428571), wk =   0.0400000
        k(   45) = (   0.1607143   0.1607143   0.1607143), wk =   0.0400000
        k(   46) = (   0.1785714   0.1785714   0.1785714), wk =   0.0400000
        k(   47) = (   0.1964286   0.1964286   0.1964286), wk =   0.0400000
        k(   48) = (   0.2142857   0.2142857   0.2142857), wk =   0.0400000
        k(   49) = (   0.2321429   0.2321429   0.2321429), wk =   0.0400000
        k(   50) = (   0.2500000   0.2500000   0.2500000), wk =   0.0400000

     Dense  grid:     8685 G-vectors     FFT dimensions: (  27,  27,  27)

     Smooth grid:     6339 G-vectors     FFT dimensions: (  25,  25,  25)

     Estimated max dynamical RAM per process >      11.17Mb

     The potential is recalculated from file :
     ./pwscf.save/charge-density.dat

     Starting wfc are    9 randomized atomic wfcs +    3 random wfc

     Band Structure Calculation
     Davidson diagonalization with overlap

     Computing kpt #:     1
     total cpu time spent up to now is        0.7 secs

     Computing kpt #:     2
     total cpu time spent up to now is        0.9 secs

     Computing kpt #:     3
     total cpu time spent up to now is        1.1 secs

     Computing kpt #:     4
     total cpu time spent up to now is        1.2 secs

     Computing kpt #:     5
     total cpu time spent up to now is        1.3 secs

     Computing kpt #:     6
     total cpu time spent up to now is        1.4 secs

     Computing kpt #:     7
     total cpu time spent up to now is        1.6 secs

     Computing kpt #:     8
     total cpu time spent up to now is        1.7 secs

     Computing kpt #:     9
     total cpu time spent up to now is        1.8 secs

     Computing kpt #:    10
     total cpu time spent up to now is        2.0 secs

     Computing kpt #:    11
     total cpu time spent up to now is        2.2 secs

     Computing kpt #:    12
     total cpu time spent up to now is        2.3 secs

     Computing kpt #:    13
     total cpu time spent up to now is        2.5 secs

     Computing kpt #:    14
     total cpu time spent up to now is        2.7 secs

     Computing kpt #:    15
     total cpu time spent up to now is        2.8 secs

     Computing kpt #:    16
     total cpu time spent up to now is        3.0 secs

     Computing kpt #:    17
     total cpu time spent up to now is        3.1 secs

     Computing kpt #:    18
     total cpu time spent up to now is        3.2 secs

     Computing kpt #:    19
     total cpu time spent up to now is        3.4 secs

     Computing kpt #:    20
     total cpu time spent up to now is        3.5 secs

     Computing kpt #:    21
     total cpu time spent up to now is        3.6 secs

     Computing kpt #:    22
     total cpu time spent up to now is        3.8 secs

     Computing kpt #:    23
     total cpu time spent up to now is        3.9 secs

     Computing kpt #:    24
     total cpu time spent up to now is        4.0 secs

     Computing kpt #:    25
     total cpu time spent up to now is        4.2 secs

     Computing kpt #:    26
     total cpu time spent up to now is        4.3 secs

     Computing kpt #:    27
     total cpu time spent up to now is        4.4 secs

     Computing kpt #:    28
     total cpu time spent up to now is        4.5 secs

     Computing kpt #:    29
     total cpu time spent up to now is        4.7 secs

     Computing kpt #:    30
     total cpu time spent up to now is        4.8 secs

     Computing kpt #:    31
     total cpu time spent up to now is        4.9 secs

     Computing kpt #:    32
     total cpu time spent up to now is        5.1 secs

     Computing kpt #:    33
     total cpu time spent up to now is        5.3 secs

     Computing kpt #:    34
     total cpu time spent up to now is        5.4 secs

     Computing kpt #:    35
     total cpu time spent up to now is        5.6 secs

     Computing kpt #:    36
     total cpu time spent up to now is        5.7 secs

     Computing kpt #:    37
     total cpu time spent up to now is        5.9 secs

     Computing kpt #:    38
     total cpu time spent up to now is        6.1 secs

     Computing kpt #:    39
     total cpu time spent up to now is        6.2 secs

     Computing kpt #:    40
     total cpu time spent up to now is        6.4 secs

     Computing kpt #:    41
     total cpu time spent up to now is        6.6 secs

     Computing kpt #:    42
     total cpu time spent up to now is        6.8 secs

     Computing kpt #:    43
     total cpu time spent up to now is        6.9 secs

     Computing kpt #:    44
     total cpu time spent up to now is        7.1 secs

     Computing kpt #:    45
     total cpu time spent up to now is        7.2 secs

     Computing kpt #:    46
     total cpu time spent up to now is        7.4 secs

     Computing kpt #:    47
     total cpu time spent up to now is        7.5 secs

     Computing kpt #:    48
     total cpu time spent up to now is        7.7 secs

     Computing kpt #:    49
     total cpu time spent up to now is        7.8 secs

     Computing kpt #:    50
     total cpu time spent up to now is        8.0 secs

     ethr =  6.67E-10,  avg # of iterations = 18.0

     total cpu time spent up to now is        8.0 secs

     End of band structure calculation

          k = 0.0000 0.0000 0.0000 (   767 PWs)   bands (ev):

   -17.6719 -17.6719 -17.6719 -17.6054 -17.6054  -1.1627  17.0063  17.0063
    17.0063  22.8077  22.8077  22.8077

          k = 0.0000 0.0619 0.0000 (   775 PWs)   bands (ev):

   -17.6709 -17.6709 -17.6706 -17.6062 -17.6053  -1.1098  16.7080  16.8221
    16.8221  22.4316  22.4316  22.7302

          k = 0.0000 0.1237 0.0000 (   771 PWs)   bands (ev):

   -17.6678 -17.6678 -17.6668 -17.6087 -17.6052  -0.9513  15.9680  16.3126
    16.3126  21.5521  22.1439  22.1439

          k = 0.0000 0.1856 0.0000 (   779 PWs)   bands (ev):

   -17.6629 -17.6629 -17.6606 -17.6127 -17.6054  -0.6879  15.0356  15.5858
    15.5858  20.4436  22.1481  22.1481

          k = 0.0000 0.2474 0.0000 (   771 PWs)   bands (ev):

   -17.6560 -17.6560 -17.6524 -17.6181 -17.6065  -0.3207  14.0663  14.7559
    14.7559  19.4280  22.3938  22.3938

          k = 0.0000 0.3093 0.0000 (   771 PWs)   bands (ev):

   -17.6474 -17.6474 -17.6427 -17.6245 -17.6092   0.1480  13.1365  13.9049
    13.9049  18.5097  22.8288  22.8288

          k = 0.0000 0.3712 0.0000 (   779 PWs)   bands (ev):

   -17.6373 -17.6373 -17.6318 -17.6317 -17.6138   0.7143  12.2839  13.0829
    13.0829  17.6899  23.4192  23.4192

          k = 0.0000 0.4330 0.0000 (   771 PWs)   bands (ev):

   -17.6393 -17.6262 -17.6262 -17.6206 -17.6203   1.3721  11.5284  12.3197
    12.3197  16.9686  24.1438  24.1438

          k = 0.0000 0.4949 0.0000 (   779 PWs)   bands (ev):

   -17.6470 -17.6293 -17.6145 -17.6145 -17.6089   2.1108  10.8817  11.6340
    11.6340  16.3454  22.5422  24.9886

          k = 0.0000 0.5567 0.0000 (   787 PWs)   bands (ev):

   -17.6544 -17.6393 -17.6029 -17.6029 -17.5981   2.9130  10.3529  11.0380
    11.0380  15.8197  20.6794  25.9429

          k = 0.0000 0.6186 0.0000 (   787 PWs)   bands (ev):

   -17.6610 -17.6497 -17.5920 -17.5920 -17.5884   3.7487   9.9514  10.5404
    10.5404  15.3908  18.9139  26.8795

          k = 0.0000 0.6804 0.0000 (   791 PWs)   bands (ev):

   -17.6666 -17.6594 -17.5827 -17.5827 -17.5804   4.5661   9.6904  10.1475
    10.1475  15.0580  17.3125  27.7194

          k = 0.0000 0.7423 0.0000 (   792 PWs)   bands (ev):

   -17.6708 -17.6673 -17.5754 -17.5754 -17.5743   5.2802   9.5810   9.8637
     9.8637  14.8207  15.9583  28.5913

          k = 0.0000 0.8042 0.0000 (   780 PWs)   bands (ev):

   -17.6735 -17.6725 -17.5708 -17.5708 -17.5705   5.7756   9.5990   9.6922
     9.6922  14.6785  14.9943  29.3891

          k = 0.0000 0.8660 0.0000 (   784 PWs)   bands (ev):

   -17.6744 -17.6744 -17.5693 -17.5693 -17.5693   5.9526   9.6349   9.6349
     9.6349  14.6312  14.6312  29.7746

          k = 0.0433 0.8227 0.0000 (   782 PWs)   bands (ev):

   -17.6733 -17.6728 -17.5723 -17.5708 -17.5690   5.7869   9.4531   9.6911
     9.8266  14.7587  14.9093  29.2684

          k = 0.0866 0.7794 0.0000 (   784 PWs)   bands (ev):

   -17.6701 -17.6683 -17.5811 -17.5752 -17.5683   5.3814   9.0036   9.8584
    10.3057  15.1435  15.6480  27.8904

          k = 0.1299 0.7361 0.0000 (   790 PWs)   bands (ev):

   -17.6654 -17.6613 -17.5947 -17.5820 -17.5672   4.8827   8.4446  10.1332
    10.9192  15.7859  16.6892  26.3180

          k = 0.1732 0.6928 0.0000 (   786 PWs)   bands (ev):

   -17.6598 -17.6524 -17.6118 -17.5901 -17.5657   4.3820   7.8787  10.5087
    11.5786  16.6679  17.9308  24.7705

          k = 0.2165 0.6495 0.0000 (   782 PWs)   bands (ev):

   -17.6545 -17.6425 -17.6307 -17.5983 -17.5642   3.9252   7.3588  10.9741
    12.2554  17.7348  19.3200  23.3010

          k = 0.2598 0.6062 0.0000 (   786 PWs)   bands (ev):

   -17.6509 -17.6495 -17.6326 -17.6049 -17.5626   3.5353   6.9120  11.5115
    12.9500  18.8434  20.8291  21.9388

          k = 0.3031 0.5629 0.0000 (   792 PWs)   bands (ev):

   -17.6664 -17.6501 -17.6236 -17.6084 -17.5612   3.2245   6.5536  12.0901
    13.6655  19.5031  20.7184  22.4312

          k = 0.3464 0.5196 0.0000 (   792 PWs)   bands (ev):

   -17.6798 -17.6517 -17.6164 -17.6089 -17.5601   2.9992   6.2925  12.6534
    14.3850  19.1319  19.6968  23.2473

          k = 0.3897 0.4763 0.0000 (   790 PWs)   bands (ev):

   -17.6883 -17.6538 -17.6118 -17.6083 -17.5593   2.8629   6.1339  13.0980
    15.0254  18.4342  18.9775  24.6127

          k = 0.4330 0.4330 0.0000 (   798 PWs)   bands (ev):

   -17.6913 -17.6546 -17.6102 -17.6079 -17.5591   2.8173   6.0807  13.2748
    15.3253  18.0908  18.7092  25.4718

          k = 0.3936 0.3936 0.0000 (   794 PWs)   bands (ev):

   -17.6909 -17.6543 -17.6101 -17.6085 -17.5614   2.5866   6.3950  13.3232
    15.3557  18.1296  18.7455  25.2616

          k = 0.3543 0.3543 0.0000 (   794 PWs)   bands (ev):

   -17.6897 -17.6536 -17.6100 -17.6098 -17.5681   2.0651   7.1662  13.4675
    15.4452  18.2464  18.8543  24.7864

          k = 0.3149 0.3149 0.0000 (   790 PWs)   bands (ev):

   -17.6879 -17.6528 -17.6120 -17.6094 -17.5788   1.4658   8.1785  13.7050
    15.5893  18.4427  19.0360  24.2496

          k = 0.2756 0.2756 0.0000 (   790 PWs)   bands (ev):

   -17.6856 -17.6528 -17.6137 -17.6088 -17.5923   0.8836   9.3313  14.0306
    15.7800  18.7205  19.2908  23.7520

          k = 0.2362 0.2362 0.0000 (   788 PWs)   bands (ev):

   -17.6830 -17.6542 -17.6142 -17.6082 -17.6078   0.3559  10.5782  14.4364
    16.0053  19.0833  19.6190  23.3422

          k = 0.1968 0.1968 0.0000 (   786 PWs)   bands (ev):

   -17.6802 -17.6572 -17.6239 -17.6134 -17.6075  -0.1015  11.8879  14.9104
    16.2482  19.5354  20.0210  23.0508

          k = 0.1575 0.1575 0.0000 (   782 PWs)   bands (ev):

   -17.6775 -17.6611 -17.6392 -17.6115 -17.6068  -0.4808  13.2265  15.4335
    16.4878  20.0829  20.4968  22.9016

          k = 0.1181 0.1181 0.0000 (   774 PWs)   bands (ev):

   -17.6752 -17.6653 -17.6526 -17.6093 -17.6063  -0.7781  14.5424  15.9743
    16.7010  20.7331  21.0456  22.9126

          k = 0.0787 0.0787 0.0000 (   779 PWs)   bands (ev):

   -17.6734 -17.6688 -17.6630 -17.6072 -17.6058  -0.9915  15.7422  16.4791
    16.8669  21.4906  21.6636  23.0889

          k = 0.0394 0.0394 0.0000 (   779 PWs)   bands (ev):

   -17.6723 -17.6711 -17.6696 -17.6059 -17.6055  -1.1199  16.6511  16.8600
    16.9710  22.3153  22.3303  23.0262

          k = 0.0000 0.0000 0.0000 (   767 PWs)   bands (ev):

   -17.6719 -17.6719 -17.6719 -17.6054 -17.6054  -1.1627  17.0063  17.0063
    17.0063  22.8077  22.8077  22.8077

          k = 0.0309 0.0309 0.0309 (   779 PWs)   bands (ev):

   -17.6719 -17.6719 -17.6694 -17.6057 -17.6057  -1.1230  16.6501  16.9355
    16.9355  22.3327  22.3327  23.0266

          k = 0.0619 0.0619 0.0619 (   779 PWs)   bands (ev):

   -17.6718 -17.6718 -17.6623 -17.6064 -17.6064  -1.0042  15.7866  16.7028
    16.7028  21.6673  21.6673  23.3484

          k = 0.0928 0.0928 0.0928 (   782 PWs)   bands (ev):

   -17.6718 -17.6718 -17.6514 -17.6075 -17.6075  -0.8066  14.7115  16.2741
    16.2741  21.2328  21.2328  23.5833

          k = 0.1237 0.1237 0.1237 (   785 PWs)   bands (ev):

   -17.6716 -17.6716 -17.6379 -17.6087 -17.6087  -0.5311  13.5858  15.6558
    15.6558  21.0960  21.0960  23.8129

          k = 0.1546 0.1546 0.1546 (   778 PWs)   bands (ev):

   -17.6712 -17.6712 -17.6234 -17.6097 -17.6097  -0.1796  12.4836  14.9076
    14.9076  21.2203  21.2203  24.0785

          k = 0.1856 0.1856 0.1856 (   790 PWs)   bands (ev):

   -17.6705 -17.6705 -17.6105 -17.6105 -17.6094   0.2449  11.4426  14.0988
    14.0988  21.5452  21.5452  24.3952

          k = 0.2165 0.2165 0.2165 (   784 PWs)   bands (ev):

   -17.6691 -17.6691 -17.6109 -17.6109 -17.5977   0.7368  10.4868  13.2805
    13.2805  22.0229  22.0229  24.7694

          k = 0.2474 0.2474 0.2474 (   784 PWs)   bands (ev):

   -17.6669 -17.6669 -17.6111 -17.6111 -17.5896   1.2866   9.6358  12.4842
    12.4842  22.6209  22.6209  25.2042

          k = 0.2784 0.2784 0.2784 (   796 PWs)   bands (ev):

   -17.6636 -17.6636 -17.6109 -17.6109 -17.5860   1.8771   8.9125  11.7293
    11.7293  23.3166  23.3166  25.6990

          k = 0.3093 0.3093 0.3093 (   790 PWs)   bands (ev):

   -17.6591 -17.6591 -17.6106 -17.6106 -17.5874   2.4772   8.3501  11.0278
    11.0278  24.0912  24.0912  26.2472

          k = 0.3402 0.3402 0.3402 (   781 PWs)   bands (ev):

   -17.6534 -17.6534 -17.6103 -17.6103 -17.5936   3.0331   8.0027  10.3877
    10.3877  24.9240  24.9240  26.8281

          k = 0.3712 0.3712 0.3712 (   778 PWs)   bands (ev):

   -17.6467 -17.6467 -17.6100 -17.6100 -17.6040   3.4658   7.9475   9.8145
     9.8145  25.7840  25.7840  27.3800

          k = 0.4021 0.4021 0.4021 (   790 PWs)   bands (ev):

   -17.6394 -17.6394 -17.6172 -17.6099 -17.6099   3.7093   8.2469   9.3123
     9.3123  26.6102  26.6102  27.6958

          k = 0.4330 0.4330 0.4330 (   784 PWs)   bands (ev):

   -17.6319 -17.6319 -17.6319 -17.6099 -17.6099   3.7749   8.8843   8.8843
     8.8843  27.2569  27.2569  27.2569

     Writing output data file pwscf.save

     init_run     :      0.56s CPU      0.47s WALL (       1 calls)
     electrons    :     14.30s CPU      7.35s WALL (       1 calls)

     Called by init_run:
     wfcinit      :      0.00s CPU      0.00s WALL (       1 calls)
     wfcinit:atom :      0.12s CPU      0.03s WALL (      50 calls)
     wfcinit:wfcr :      0.80s CPU      0.48s WALL (      50 calls)
     potinit      :      0.02s CPU      0.02s WALL (       1 calls)

     Called by electrons:
     c_bands      :     14.30s CPU      7.35s WALL (       1 calls)
     v_of_rho     :      0.02s CPU      0.02s WALL (       1 calls)
     v_h          :      0.00s CPU      0.00s WALL (       1 calls)
     v_xc         :      0.02s CPU      0.02s WALL (       1 calls)
     newd         :      0.03s CPU      0.05s WALL (       1 calls)

     Called by c_bands:
     init_us_2    :      0.02s CPU      0.03s WALL (      50 calls)
     cegterg      :     13.17s CPU      6.66s WALL (      65 calls)

     Called by sum_band:

     Called by *egterg:
     h_psi        :      8.73s CPU      4.36s WALL (    1015 calls)
     s_psi        :      0.34s CPU      0.13s WALL (    1015 calls)
     g_psi        :      0.05s CPU      0.05s WALL (     900 calls)
     cdiaghg      :      3.20s CPU      1.51s WALL (     950 calls)
     cegterg:over :      0.59s CPU      0.39s WALL (     900 calls)
     cegterg:upda :      0.61s CPU      0.33s WALL (     900 calls)
     cegterg:last :      0.19s CPU      0.18s WALL (     166 calls)

     Called by h_psi:
     h_psi:pot    :      8.66s CPU      4.31s WALL (    1015 calls)
     h_psi:calbec :      0.25s CPU      0.16s WALL (    1015 calls)
     vloc_psi     :      8.03s CPU      3.98s WALL (    1015 calls)
     add_vuspsi   :      0.36s CPU      0.15s WALL (    1015 calls)

     General routines
     calbec       :      0.25s CPU      0.15s WALL (    1015 calls)
     fft          :      0.00s CPU      0.01s WALL (      13 calls)
     ffts         :      0.00s CPU      0.00s WALL (       1 calls)
     fftw         :      7.17s CPU      3.37s WALL (   12120 calls)
     interpolate  :      0.00s CPU      0.00s WALL (       1 calls)
     davcio       :      0.00s CPU      0.00s WALL (      50 calls)

     Parallel routines
     fft_scatter  :      0.61s CPU      0.35s WALL (   12134 calls)

     PWSCF        :    15.34s CPU         8.24s WALL


   This run was terminated on:  21:11:49  25Feb2021            

=------------------------------------------------------------------------------=
   JOB DONE.
=------------------------------------------------------------------------------=
