element =  Si
struct =  diamond
nbands =  -4
path =  LGXUG
kpts =  (8,8,8)

  ___ ___ ___ _ _ _  
 |   |   |_  | | | | 
 | | | | | . | | | | 
 |__ |  _|___|_____|  1.3.1b1
 |___|_|             

User:   inukai@DESKTOP-12SE80T
Date:   Tue Feb  2 19:35:32 2021
Arch:   x86_64
Pid:    347
Python: 3.6.9
gpaw:   /usr/lib/python3/dist-packages/gpaw
_gpaw:  /usr/lib/python3/dist-packages/_gpaw.cpython-36m-x86_64-linux-gnu.so
ase:    /home/inukai/hotcent/ase-3.19.3/ase (version 3.19.3)
numpy:  /home/inukai/.local/lib/python3.6/site-packages/numpy (version 1.19.5)
scipy:  /home/inukai/.local/lib/python3.6/site-packages/scipy (version 1.5.4)
units:  Angstrom and eV
cores:  1

Input parameters:
  kpts: [8 8 8]
  maxiter: 200
  mixer: {backend: pulay,
          beta: 0.05,
          method: separate,
          nmaxold: 8,
          weight: 100}
  mode: {ecut: 400.0,
         name: pw}
  occupations: {name: fermi-dirac,
                width: 0.02}
  spinpol: False
  xc: PBE

System changes: positions, numbers, cell, pbc, initial_charges, initial_magmoms 

Initialize ...

Si-setup:
  name: Silicon
  id: ee77bee481871cc2cb65ac61239ccafa
  Z: 14
  valence: 4
  core: 10
  charge: 0.0
  file: /usr/share/gpaw-setups/Si.PBE.gz
  cutoffs: 1.06(comp), 1.86(filt), 2.06(core), lmax=2
  valence states:
                energy  radius
    3s(2.00)   -10.812   1.058
    3p(2.00)    -4.081   1.058
    *s          16.399   1.058
    *p          23.130   1.058
    *d           0.000   1.058

  Using partial waves for Si as LCAO basis

Reference energy: -15772.688500

Spin-paired calculation

Occupation numbers:
  Fermi-Dirac: width=0.0200 eV

Convergence criteria:
  Maximum total energy change: 0.0005 eV / electron
  Maximum integral of absolute density change: 0.0001 electrons
  Maximum integral of absolute eigenstate change: 4e-08 eV^2
  Maximum number of iterations: 200

Symmetries present (total): 24

  ( 1  0  0)  ( 1  0  0)  ( 1  0 -1)  ( 1  0 -1)  ( 1 -1  0)  ( 1 -1  0)
  ( 0  1  0)  ( 0  0  1)  ( 0  1 -1)  ( 0  0 -1)  ( 0 -1  1)  ( 0 -1  0)
  ( 0  0  1)  ( 0  1  0)  ( 0  0 -1)  ( 0  1 -1)  ( 0 -1  0)  ( 0 -1  1)

  ( 0  1  0)  ( 0  1  0)  ( 0  1 -1)  ( 0  1 -1)  ( 0  0  1)  ( 0  0  1)
  ( 1  0  0)  ( 0  0  1)  ( 1  0 -1)  ( 0  0 -1)  ( 1  0  0)  ( 0  1  0)
  ( 0  0  1)  ( 1  0  0)  ( 0  0 -1)  ( 1  0 -1)  ( 0  1  0)  ( 1  0  0)

  ( 0  0 -1)  ( 0  0 -1)  ( 0 -1  1)  ( 0 -1  1)  ( 0 -1  0)  ( 0 -1  0)
  ( 1  0 -1)  ( 0  1 -1)  ( 1 -1  0)  ( 0 -1  0)  ( 1 -1  0)  ( 0 -1  1)
  ( 0  1 -1)  ( 1  0 -1)  ( 0 -1  0)  ( 1 -1  0)  ( 0 -1  1)  ( 1 -1  0)

  (-1  1  0)  (-1  1  0)  (-1  0  1)  (-1  0  1)  (-1  0  0)  (-1  0  0)
  (-1  0  1)  (-1  0  0)  (-1  1  0)  (-1  0  0)  (-1  1  0)  (-1  0  1)
  (-1  0  0)  (-1  0  1)  (-1  0  0)  (-1  1  0)  (-1  0  1)  (-1  1  0)
Note: your k-points are not as symmetric as your crystal!

512 k-points: 8 x 8 x 8 Monkhorst-Pack grid
60 k-points in the irreducible part of the Brillouin zone
       k-points in crystal coordinates                weights
   0:     0.06250000    0.06250000   -0.06250000          6/512
   1:     0.06250000    0.06250000    0.06250000          2/512
   2:     0.18750000   -0.06250000   -0.06250000          6/512
   3:     0.18750000    0.06250000   -0.18750000         12/512
   4:     0.18750000    0.06250000   -0.06250000         12/512
   5:     0.18750000    0.06250000    0.06250000          6/512
   6:     0.18750000    0.18750000   -0.18750000          6/512
   7:     0.18750000    0.18750000   -0.06250000          6/512
   8:     0.18750000    0.18750000    0.06250000          6/512
   9:     0.18750000    0.18750000    0.18750000          2/512
          ...
  59:     0.43750000    0.43750000    0.43750000          2/512

Wave functions: Plane wave expansion
  Cutoff energy: 400.000 eV
  Number of coefficients (min, max): 717, 745
  Using FFTW library
  Eigensolver: None  MatrixOperator buffer_size: default value or 
                              see value of nblock in input file
Diagonalizer layout: Serial LAPACKOrthonormalizer layout: Serial LAPACK 

Davidson(niter=1, smin=None, normalize=True) 

Densities:
  Coarse grid: 14*14*14 grid
  Fine grid: 28*28*28 grid
  Total Charge: 0.000000 

Density mixing:
  Method: separate
  Backend: pulay
  Linear mixing parameter: 0.05
  Mixing with 8 old densities
  Damping of long wave oscillations: 100 

Hamiltonian:
  XC and Coulomb potentials evaluated on a 28*28*28 grid
  Using the PBE Exchange-Correlation functional
 

Memory estimate:
  Process memory now: 923.03 MiB
  Calculator: 12.78 MiB
    Density: 1.25 MiB
      Arrays: 0.54 MiB
      Localized functions: 0.37 MiB
      Mixer: 0.33 MiB
    Hamiltonian: 0.36 MiB
      Arrays: 0.36 MiB
      XC: 0.00 MiB
      Poisson: 0.00 MiB
      vbar: 0.01 MiB
    Wavefunctions: 11.16 MiB
      Arrays psit_nG: 5.46 MiB
      Eigensolver: 0.16 MiB
      Projections: 0.19 MiB
      Projectors: 4.66 MiB
      Overlap op: 0.09 MiB
      PW-descriptor: 0.60 MiB

Total number of cores used: 1

Number of atoms: 2
Number of atomic orbitals: 8
Number of bands in calculation: 8
Bands to converge: occupied states only
Number of valence electrons: 8

... initialized

Initializing position-dependent things.

Density initialized from atomic densities
Creating initial wave functions:
  8 bands from LCAO basis set

                    
                    
                    
                    
           Si       
                    
       Si           
                    
                    
                    
                    

Positions:
   0 Si     0.000000    0.000000    0.000000
   1 Si     1.357500    1.357500    1.357500

Unit cell:
           periodic     x           y           z      points  spacing
  1. axis:    yes    0.000000    2.715000    2.715000    14     0.2239
  2. axis:    yes    2.715000    0.000000    2.715000    14     0.2239
  3. axis:    yes    2.715000    2.715000    0.000000    14     0.2239

  Lengths:   3.839590   3.839590   3.839590
  Angles:   60.000000  60.000000  60.000000

Effective grid spacing dv^(1/3) = 0.2443

                     log10-error:    total        iterations:
           time      wfs    density  energy       fermi  poisson
iter:   1  19:35:35  +1.47   +inf   -10.761430    5             
iter:   2  19:35:36  -0.08   +inf   -10.874824    0             
iter:   3  19:35:37  -1.13   +inf   -10.887391    0             
iter:   4  19:35:38  -1.91  -0.79   -10.874455    0             
iter:   5  19:35:40  -0.91  -0.81   -10.790303    5             
iter:   6  19:35:41  -1.84  -1.63   -10.790146    1             
iter:   7  19:35:42  -2.55  -1.69   -10.789872    0             
iter:   8  19:35:44  -2.58  -1.90   -10.788270    2             
iter:   9  19:35:45  -3.48  -2.52   -10.788286    0             
iter:  10  19:35:46  -3.95  -2.64   -10.788413    0             
iter:  11  19:35:48  -4.00  -2.48   -10.788277    0             
iter:  12  19:35:49  -4.93  -3.44   -10.788278    0             
iter:  13  19:35:50  -6.17  -3.87   -10.788278    0             
iter:  14  19:35:52  -6.73  -3.85   -10.788278    0             
iter:  15  19:35:53  -7.13  -4.02   -10.788278    0             
iter:  16  19:35:54  -7.43  -4.14   -10.788278    0             

Converged after 16 iterations.

Dipole moment: (-2.923532, -2.923532, -2.923532) |e|*Ang

Energy contributions relative to reference atoms: (reference = -15772.688500)

Kinetic:        +15.574845
Potential:      -13.681126
External:        +0.000000
XC:             -12.656616
Entropy (-ST):   -0.000000
Local:           -0.025381
--------------------------
Free energy:    -10.788278
Extrapolated:   -10.788278

Fermi level: 5.63077

Warning: Showing only first 2 kpts
 Kpt  Band  Eigenvalues  Occupancy
  0     2      4.79501    0.02344
  0     3      4.96467    0.02344
  0     4      7.71228    0.00000
  0     5      8.32909    0.00000

  1     2      5.23091    0.00781
  1     3      5.23091    0.00781
  1     4      7.94044    0.00000
  1     5      7.99875    0.00000


Input parameters:
  convergence: {bands: all}
  eigensolver: {name: cg,
                niter: 5}
  fixdensity: True
  kpts: {npoints: 50,
         path: LGXUG}
  nbands: -4
  symmetry: off

Initialize ...

Si-setup:
  name: Silicon
  id: ee77bee481871cc2cb65ac61239ccafa
  Z: 14
  valence: 4
  core: 10
  charge: 0.0
  file: /usr/share/gpaw-setups/Si.PBE.gz
  cutoffs: 1.06(comp), 1.86(filt), 2.06(core), lmax=2
  valence states:
                energy  radius
    3s(2.00)   -10.812   1.058
    3p(2.00)    -4.081   1.058
    *s          16.399   1.058
    *p          23.130   1.058
    *d           0.000   1.058

  Using partial waves for Si as LCAO basis

Reference energy: -15772.688500

Spin-paired calculation

Occupation numbers:
  Fixed Fermi level
  Fermi-Dirac: width=0.0200 eV

Convergence criteria:
  Maximum total energy change: 0.0005 eV / electron
  Maximum integral of absolute density change: 0.0001 electrons
  Maximum integral of absolute eigenstate change: 4e-08 eV^2
  Maximum number of iterations: 200

Symmetries present (total): 1

  ( 1  0  0)
  ( 0  1  0)
  ( 0  0  1)

50 k-points
50 k-points in the irreducible part of the Brillouin zone
       k-points in crystal coordinates                weights
   0:     0.50000000    0.50000000    0.50000000          1/50
   1:     0.45833333    0.45833333    0.45833333          1/50
   2:     0.41666667    0.41666667    0.41666667          1/50
   3:     0.37500000    0.37500000    0.37500000          1/50
   4:     0.33333333    0.33333333    0.33333333          1/50
   5:     0.29166667    0.29166667    0.29166667          1/50
   6:     0.25000000    0.25000000    0.25000000          1/50
   7:     0.20833333    0.20833333    0.20833333          1/50
   8:     0.16666667    0.16666667    0.16666667          1/50
   9:     0.12500000    0.12500000    0.12500000          1/50
          ...
  49:     0.00000000    0.00000000    0.00000000          1/50

Wave functions: Plane wave expansion
  Cutoff energy: 400.000 eV
  Number of coefficients (min, max): 709, 745
  Using FFTW library
  Eigensolver: None  MatrixOperator buffer_size: default value or 
                              see value of nblock in input file
Diagonalizer layout: Serial LAPACKOrthonormalizer layout: Serial LAPACK 

CG(niter=5, rtol=3.0e-01) 

No density mixing

Memory estimate:
  Process memory now: 979.67 MiB
  Calculator: 10.96 MiB
    Density: 1.25 MiB
      Arrays: 0.54 MiB
      Localized functions: 0.37 MiB
      Mixer: 0.33 MiB
    Hamiltonian: 0.36 MiB
      Arrays: 0.36 MiB
      XC: 0.00 MiB
      Poisson: 0.00 MiB
      vbar: 0.01 MiB
    Wavefunctions: 9.35 MiB
      Arrays psit_nG: 4.55 MiB
      Eigensolver: 0.15 MiB
      Projections: 0.16 MiB
      Projectors: 3.88 MiB
      Overlap op: 0.09 MiB
      PW-descriptor: 0.52 MiB

Total number of cores used: 1

Number of atoms: 2
Number of atomic orbitals: 8
Number of bands in calculation: 8
Bands to converge: all
Number of valence electrons: 8

... initialized

Initializing position-dependent things.

Creating initial wave functions:
  8 bands from LCAO basis set

                    
                    
                    
                    
           Si       
                    
       Si           
                    
                    
                    
                    

Positions:
   0 Si     0.000000    0.000000    0.000000
   1 Si     1.357500    1.357500    1.357500

Unit cell:
           periodic     x           y           z      points  spacing
  1. axis:    yes    0.000000    2.715000    2.715000    14     0.2239
  2. axis:    yes    2.715000    0.000000    2.715000    14     0.2239
  3. axis:    yes    2.715000    2.715000    0.000000    14     0.2239

  Lengths:   3.839590   3.839590   3.839590
  Angles:   60.000000  60.000000  60.000000

Effective grid spacing dv^(1/3) = 0.2443

                     log10-error:    total        iterations:
           time      wfs    density  energy       fermi  poisson
iter:   1  19:35:59  +1.39           -5.527198    4             
iter:   2  19:36:02  +0.60           -5.668188    2             
iter:   3  19:36:05  -0.44           -5.682507    3             
iter:   4  19:36:08  -1.19           -5.684482    3             
iter:   5  19:36:11  -2.06           -5.684798    3             
iter:   6  19:36:14  -2.77           -5.684855    3             
iter:   7  19:36:17  -3.59           -5.684866    3             
iter:   8  19:36:20  -1.42           -5.684867    3             
iter:   9  19:36:23  -1.93           -5.684868    3             
iter:  10  19:36:26  -2.44           -5.684868    3             
iter:  11  19:36:27  -2.92           -5.684868    3             
iter:  12  19:36:28  -3.48           -5.684868    3             
iter:  13  19:36:29  -3.65           -5.684868    3             
iter:  14  19:36:29  -3.48           -5.684868    3             
iter:  15  19:36:30  -4.47           -5.684868    3             
iter:  16  19:36:30  -5.11           -5.684868    3             
iter:  17  19:36:31  -6.13           -5.684868    3             
iter:  18  19:36:31  -6.44           -5.684868    3             
iter:  19  19:36:31  -5.63           -5.684868    3             
iter:  20  19:36:32  -6.93           -5.684868    3             
iter:  21  19:36:32  -6.62           -5.684868    3             
iter:  22  19:36:32  -7.18           -5.684868    3             
iter:  23  19:36:33  -8.11           -5.684868    3             

Converged after 23 iterations.

Dipole moment: (-2.923533, -2.923533, -2.923533) |e|*Ang

Energy contributions relative to reference atoms: (reference = -15772.688500)

Kinetic:        +20.678219
Potential:      -13.681105
External:        +0.000000
XC:             -12.656586
Entropy (-ST):   -0.000000
Local:           -0.025395
--------------------------
Free energy:     -5.684868
Extrapolated:    -5.684868

Fixed Fermi level: 5.63077

Warning: Showing only first 2 kpts
 Kpt  Band  Eigenvalues  Occupancy
  0     2      4.11509    0.04000
  0     3      4.11509    0.04000
  0     4      6.85442    0.00000
  0     5      8.65009    0.00000

  1     2      4.12755    0.04000
  1     3      4.12755    0.04000
  1     4      6.86874    0.00000
  1     5      8.66444    0.00000


Timing:                              incl.     excl.
-----------------------------------------------------------
Hamiltonian:                         0.659     0.001   0.0% |
 Atomic:                             0.546     0.003   0.0% |
  XC Correction:                     0.542     0.542   0.9% |
 Calculate atomic Hamiltonians:      0.021     0.021   0.0% |
 Communicate:                        0.000     0.000   0.0% |
 Initialize Hamiltonian:             0.000     0.000   0.0% |
 Poisson:                            0.000     0.000   0.0% |
 XC 3D grid:                         0.090     0.090   0.1% |
LCAO initialization:                 2.205     0.108   0.2% |
 LCAO eigensolver:                   0.719     0.010   0.0% |
  Calculate projections:             0.004     0.004   0.0% |
  DenseAtomicCorrection:             0.026     0.026   0.0% |
  Distribute overlap matrix:         0.004     0.004   0.0% |
  Orbital Layouts:                   0.038     0.038   0.1% |
  Potential matrix:                  0.067     0.067   0.1% |
  Sum over cells:                    0.570     0.570   0.9% |
 LCAO to grid:                       0.443     0.443   0.7% |
 Set positions (LCAO WFS):           0.936     0.001   0.0% |
  Basic WFS set positions:           0.005     0.005   0.0% |
  Basis functions set positions:     0.000     0.000   0.0% |
  TCI: Calculate S, T, P:            0.930     0.930   1.5% ||
PWDescriptor:                        0.027     0.027   0.0% |
Redistribute:                        0.000     0.000   0.0% |
SCF-cycle:                          56.713     1.436   2.3% ||
 CG:                                29.561    27.481  44.2% |-----------------|
  CG: orthonormalize:                2.081     1.188   1.9% ||
   CG: overlap:                      0.503     0.503   0.8% |
   CG: overlap2:                     0.390     0.390   0.6% |
 Davidson:                          11.191     7.348  11.8% |----|
  calc. matrices:                    2.586     2.586   4.2% |-|
  diagonalize:                       0.837     0.837   1.3% ||
  rotate_psi:                        0.420     0.420   0.7% |
 Density:                            1.921     0.001   0.0% |
  Atomic density matrices:           0.084     0.084   0.1% |
  Mix:                               0.152     0.152   0.2% |
  Multipole moments:                 0.004     0.004   0.0% |
  Pseudo density:                    1.680     1.555   2.5% ||
   Symmetrize density:               0.125     0.125   0.2% |
 Hamiltonian:                        3.857     0.009   0.0% |
  Atomic:                            3.255     0.023   0.0% |
   XC Correction:                    3.232     3.232   5.2% |-|
  Calculate atomic Hamiltonians:     0.122     0.122   0.2% |
  Communicate:                       0.000     0.000   0.0% |
  Poisson:                           0.003     0.003   0.0% |
  XC 3D grid:                        0.467     0.467   0.8% |
 Orthonormalize:                     0.276     0.009   0.0% |
  Band Layouts:                      0.006     0.002   0.0% |
   Inverse Cholesky:                 0.004     0.004   0.0% |
  calc_s_matrix:                     0.024     0.024   0.0% |
  projections:                       0.215     0.215   0.3% |
  rotate_psi:                        0.021     0.021   0.0% |
 Residuals:                          2.597     2.597   4.2% |-|
 Subspace diag:                      5.874     0.272   0.4% |
  Band Layouts:                      0.572     0.076   0.1% |
   Diagonalize:                      0.441     0.441   0.7% |
   Distribute results:               0.055     0.055   0.1% |
  calc_h_matrix:                     4.294     4.294   6.9% |--|
  rotate_psi:                        0.737     0.737   1.2% |
Set symmetry:                        0.137     0.137   0.2% |
Other:                               2.381     2.381   3.8% |-|
-----------------------------------------------------------
Total:                                        62.122 100.0%

Date: Tue Feb  2 19:36:34 2021
element =  Si
struct =  diamond
kpts =  (8,8,8)
element =  Si
configuration =  [Ne] 3s2 3p2 3d0
valence =  ['3s', '3p', '3d']
occupations =  {'3s': 2, '3p': 2, '3d': 0}
nls =  3p
rNum =  600
lmax =  d
*******************************************
Starting confinement parameter optimization
Adjustable parameters and initial values:
  Si_3d.r0 : 4.195192
  Si_3p.r0 : 4.195192
  Si_3s.r0 : 4.195192
  Si_n.r0 : 6.292788
*******************************************

OPT_VAL: 4.195191999357982   4.195191999357982   4.195191999357982   6.292787999036973
VCONF:
  Si_3d : PowerConfinement(r0=4.195192, s=2.000000)
  Si_3p : PowerConfinement(r0=4.195192, s=2.000000)
  Si_3s : PowerConfinement(r0=4.195192, s=2.000000)
  Si_n : PowerConfinement(r0=6.292788, s=2.000000)
RESIDUAL: 0.0

OPT_VAL: 4.395191999357982   4.195191999357982   4.195191999357982   6.292787999036973
VCONF:
  Si_3d : PowerConfinement(r0=4.395192, s=2.000000)
  Si_3p : PowerConfinement(r0=4.195192, s=2.000000)
  Si_3s : PowerConfinement(r0=4.195192, s=2.000000)
  Si_n : PowerConfinement(r0=6.292788, s=2.000000)
RESIDUAL: 0.0

OPT_VAL: 4.195191999357982   4.395191999357982   4.195191999357982   6.292787999036973
VCONF:
  Si_3d : PowerConfinement(r0=4.195192, s=2.000000)
  Si_3p : PowerConfinement(r0=4.395192, s=2.000000)
  Si_3s : PowerConfinement(r0=4.195192, s=2.000000)
  Si_n : PowerConfinement(r0=6.292788, s=2.000000)
RESIDUAL: 0.0

OPT_VAL: 4.195191999357982   4.195191999357982   4.395191999357982   6.292787999036973
VCONF:
  Si_3d : PowerConfinement(r0=4.195192, s=2.000000)
  Si_3p : PowerConfinement(r0=4.195192, s=2.000000)
  Si_3s : PowerConfinement(r0=4.395192, s=2.000000)
  Si_n : PowerConfinement(r0=6.292788, s=2.000000)
RESIDUAL: 0.0

OPT_VAL: 4.195191999357982   4.195191999357982   4.195191999357982   6.492787999036973
VCONF:
  Si_3d : PowerConfinement(r0=4.195192, s=2.000000)
  Si_3p : PowerConfinement(r0=4.195192, s=2.000000)
  Si_3s : PowerConfinement(r0=4.195192, s=2.000000)
  Si_n : PowerConfinement(r0=6.492788, s=2.000000)
RESIDUAL: 0.0

OPT_VAL: 4.220191999357982   4.195191999357982   4.195191999357982   6.292787999036973
VCONF:
  Si_3d : PowerConfinement(r0=4.220192, s=2.000000)
  Si_3p : PowerConfinement(r0=4.195192, s=2.000000)
  Si_3s : PowerConfinement(r0=4.195192, s=2.000000)
  Si_n : PowerConfinement(r0=6.292788, s=2.000000)
RESIDUAL: 0.0

OPT_VAL: 4.195191999357982   4.220191999357982   4.195191999357982   6.292787999036973
VCONF:
  Si_3d : PowerConfinement(r0=4.195192, s=2.000000)
  Si_3p : PowerConfinement(r0=4.220192, s=2.000000)
  Si_3s : PowerConfinement(r0=4.195192, s=2.000000)
  Si_n : PowerConfinement(r0=6.292788, s=2.000000)
RESIDUAL: 0.0

OPT_VAL: 4.195191999357982   4.195191999357982   4.220191999357982   6.292787999036973
VCONF:
  Si_3d : PowerConfinement(r0=4.195192, s=2.000000)
  Si_3p : PowerConfinement(r0=4.195192, s=2.000000)
  Si_3s : PowerConfinement(r0=4.220192, s=2.000000)
  Si_n : PowerConfinement(r0=6.292788, s=2.000000)
RESIDUAL: 0.0

OPT_VAL: 4.195191999357982   4.195191999357982   4.195191999357982   6.317787999036973
VCONF:
  Si_3d : PowerConfinement(r0=4.195192, s=2.000000)
  Si_3p : PowerConfinement(r0=4.195192, s=2.000000)
  Si_3s : PowerConfinement(r0=4.195192, s=2.000000)
  Si_n : PowerConfinement(r0=6.317788, s=2.000000)
RESIDUAL: 0.0

OPT_VAL: 4.2001919993579815   4.195191999357982   4.195191999357982   6.292787999036973
VCONF:
  Si_3d : PowerConfinement(r0=4.200192, s=2.000000)
  Si_3p : PowerConfinement(r0=4.195192, s=2.000000)
  Si_3s : PowerConfinement(r0=4.195192, s=2.000000)
  Si_n : PowerConfinement(r0=6.292788, s=2.000000)
RESIDUAL: 0.0

OPT_VAL: 4.195191999357982   4.2001919993579815   4.195191999357982   6.292787999036973
VCONF:
  Si_3d : PowerConfinement(r0=4.195192, s=2.000000)
  Si_3p : PowerConfinement(r0=4.200192, s=2.000000)
  Si_3s : PowerConfinement(r0=4.195192, s=2.000000)
  Si_n : PowerConfinement(r0=6.292788, s=2.000000)
RESIDUAL: 0.0

OPT_VAL: 4.195191999357982   4.195191999357982   4.2001919993579815   6.292787999036973
VCONF:
  Si_3d : PowerConfinement(r0=4.195192, s=2.000000)
  Si_3p : PowerConfinement(r0=4.195192, s=2.000000)
  Si_3s : PowerConfinement(r0=4.200192, s=2.000000)
  Si_n : PowerConfinement(r0=6.292788, s=2.000000)
RESIDUAL: 0.0

OPT_VAL: 4.195191999357982   4.195191999357982   4.195191999357982   6.297787999036973
VCONF:
  Si_3d : PowerConfinement(r0=4.195192, s=2.000000)
  Si_3p : PowerConfinement(r0=4.195192, s=2.000000)
  Si_3s : PowerConfinement(r0=4.195192, s=2.000000)
  Si_n : PowerConfinement(r0=6.297788, s=2.000000)
RESIDUAL: 0.0

*******************************************
Optimization finished after 13 iterations
Adjustable parameters and final values:
  Si_3d.r0 : 4.195192
  Si_3p.r0 : 4.195192
  Si_3s.r0 : 4.195192
  Si_n.r0 : 6.292788
*******************************************

VCONF:
  Si_3d : PowerConfinement(r0=4.195192, s=2.000000)
  Si_3p : PowerConfinement(r0=4.195192, s=2.000000)
  Si_3s : PowerConfinement(r0=4.195192, s=2.000000)
  Si_n : PowerConfinement(r0=6.292788, s=2.000000)
