
     Program PWSCF v.6.0 (svn rev. 13079) starts on 26Feb2021 at 13:41:31 

     This program is part of the open-source Quantum ESPRESSO suite
     for quantum simulation of materials; please cite
         "P. Giannozzi et al., J. Phys.:Condens. Matter 21 395502 (2009);
          URL http://www.quantum-espresso.org", 
     in publications or presentations arising from this work. More details at
     http://www.quantum-espresso.org/quote

     Parallel version (MPI), running on     1 processors
     Reading input from espresso.pwi
Warning: card &IONS ignored
Warning: card / ignored
Warning: card &CELL ignored
Warning: card / ignored

     Current dimensions of program PWSCF are:
     Max number of different atomic species (ntypx) = 10
     Max number of k-points (npk) =  40000
     Max angular momentum in pseudopotentials (lmaxx) =  3
     Message from routine input:
     WARNING: "startingwfc" set to atomic+random may spoil restart

     Atomic positions and unit cell read from directory:
     ./pwscf.save/


     IMPORTANT: XC functional enforced from input :
     Exchange-correlation      = PBE ( 1  4  3  4 0 0)
     Any further DFT definition will be discarded
     Please, verify this is what you really want


     Subspace diagonalization in iterative solution of the eigenvalue problem:
     a serial algorithm will be used


     G-vector sticks info
     --------------------
     sticks:   dense  smooth     PW     G-vecs:    dense   smooth      PW
     Sum        1015     805    241                28885    20643    3333



     bravais-lattice index     =            0
     lattice parameter (alat)  =       8.5503  a.u.
     unit-cell volume          =     604.1812 (a.u.)^3
     number of atoms/cell      =            3
     number of atomic types    =            1
     number of electrons       =        18.00
     number of Kohn-Sham states=           13
     kinetic-energy cutoff     =      40.0000  Ry
     charge density cutoff     =     200.0000  Ry
     Exchange-correlation      = PBE ( 1  4  3  4 0 0)

     celldm(1)=   8.550327  celldm(2)=   0.000000  celldm(3)=   0.000000
     celldm(4)=   0.000000  celldm(5)=   0.000000  celldm(6)=   0.000000

     crystal axes: (cart. coord. in units of alat)
               a(1) = (   1.000000   0.000000   0.000000 )  
               a(2) = (  -0.500000   0.866025   0.000000 )  
               a(3) = (   0.000000   0.000000   1.116062 )  

     reciprocal axes: (cart. coord. in units 2 pi/alat)
               b(1) = (  1.000000  0.577350 -0.000000 )  
               b(2) = (  0.000000  1.154701  0.000000 )  
               b(3) = (  0.000000 -0.000000  0.896007 )  


     PseudoPot. # 1 for Se read from file:
     /home/inukai/tango/tests/1element/qe_fit_v3_Se/../pseudo/se_pbe_v1.uspp.F.UPF
     MD5 check sum: 1b3568f3a8ae88f9a2a0ad0698632c85
     Pseudo is Ultrasoft + core correction, Zval =  6.0
     Generated by new atomic code, or converted to UPF format
     Using radial grid of  877 points,  6 beta functions with: 
                l(1) =   0
                l(2) =   0
                l(3) =   1
                l(4) =   1
                l(5) =   2
                l(6) =   2
     Q(r) pseudized with  8 coefficients,  rinner =    1.300   1.300   1.300
                                                       1.300   1.300

     atomic species   valence    mass     pseudopotential
        Se             6.00    78.97100     Se( 1.00)

      6 Sym. Ops. (no inversion) found ( 4 have fractional translation)


                                    s                        frac. trans.

      isym =  1     identity                                     

 cryst.   s( 1) = (     1          0          0      )
                  (     0          1          0      )
                  (     0          0          1      )

 cart.    s( 1) = (  1.0000000  0.0000000  0.0000000 )
                  (  0.0000000  1.0000000  0.0000000 )
                  (  0.0000000  0.0000000  1.0000000 )


      isym =  2     180 deg rotation - cart. axis [1,0,0]        

 cryst.   s( 2) = (     1          0          0      )    f =(  0.0000000 )
                  (    -1         -1          0      )       (  0.0000000 )
                  (     0          0         -1      )       (  0.3333333 )

 cart.    s( 2) = (  1.0000000 -0.0000000  0.0000000 )    f =(  0.0000000 )
                  (  0.0000000 -1.0000000  0.0000000 )       (  0.0000000 )
                  (  0.0000000  0.0000000 -1.0000000 )       (  0.3720208 )


      isym =  3     120 deg rotation - cryst. axis [0,0,1]       

 cryst.   s( 3) = (     0          1          0      )    f =(  0.0000000 )
                  (    -1         -1          0      )       (  0.0000000 )
                  (     0          0          1      )       ( -0.3333333 )

 cart.    s( 3) = ( -0.5000000 -0.8660254  0.0000000 )    f =(  0.0000000 )
                  (  0.8660254 -0.5000000  0.0000000 )       (  0.0000000 )
                  (  0.0000000  0.0000000  1.0000000 )       ( -0.3720208 )


      isym =  4     120 deg rotation - cryst. axis [0,0,-1]      

 cryst.   s( 4) = (    -1         -1          0      )    f =(  0.0000000 )
                  (     1          0          0      )       (  0.0000000 )
                  (     0          0          1      )       (  0.3333333 )

 cart.    s( 4) = ( -0.5000000  0.8660254  0.0000000 )    f =(  0.0000000 )
                  ( -0.8660254 -0.5000000  0.0000000 )       (  0.0000000 )
                  (  0.0000000  0.0000000  1.0000000 )       (  0.3720208 )


      isym =  5     180 deg rotation - cryst. axis [0,1,0]       

 cryst.   s( 5) = (    -1         -1          0      )    f =(  0.0000000 )
                  (     0          1          0      )       (  0.0000000 )
                  (     0          0         -1      )       ( -0.3333333 )

 cart.    s( 5) = ( -0.5000000 -0.8660254  0.0000000 )    f =(  0.0000000 )
                  ( -0.8660254  0.5000000  0.0000000 )       (  0.0000000 )
                  (  0.0000000  0.0000000 -1.0000000 )       ( -0.3720208 )


      isym =  6     180 deg rotation - cryst. axis [1,1,0]       

 cryst.   s( 6) = (     0          1          0      )
                  (     1          0          0      )
                  (     0          0         -1      )

 cart.    s( 6) = ( -0.5000000  0.8660254  0.0000000 )
                  (  0.8660254  0.5000000  0.0000000 )
                  (  0.0000000  0.0000000 -1.0000000 )


   Cartesian axes

     site n.     atom                  positions (alat units)
         1           Se  tau(   1) = (   0.2190300   0.0000000   0.3720208  )
         2           Se  tau(   2) = (  -0.1095150   0.1896855   0.7440415  )
         3           Se  tau(   3) = (   0.3904850   0.6763399   1.1160623  )

   Crystallographic axes

     site n.     atom                  positions (cryst. coord.)
         1           Se  tau(   1) = (  0.2190300  0.0000000  0.3333333  )
         2           Se  tau(   2) = ( -0.0000000  0.2190300  0.6666667  )
         3           Se  tau(   3) = (  0.7809700  0.7809700  1.0000000  )

     number of k points=    50  gaussian smearing, width (Ry)=  0.0010
                       cart. coord. in units 2pi/alat
        k(    1) = (   0.0000000   0.0000000   0.0000000), wk =   0.0400000
        k(    2) = (   0.1000000   0.0577350   0.0000000), wk =   0.0400000
        k(    3) = (   0.2000000   0.1154701   0.0000000), wk =   0.0400000
        k(    4) = (   0.3000000   0.1732051   0.0000000), wk =   0.0400000
        k(    5) = (   0.4000000   0.2309401   0.0000000), wk =   0.0400000
        k(    6) = (   0.5000000   0.2886751   0.0000000), wk =   0.0400000
        k(    7) = (   0.4444444   0.3849002   0.0000000), wk =   0.0400000
        k(    8) = (   0.3888889   0.4811252   0.0000000), wk =   0.0400000
        k(    9) = (   0.3333333   0.5773503   0.0000000), wk =   0.0400000
        k(   10) = (   0.2857143   0.4948717   0.0000000), wk =   0.0400000
        k(   11) = (   0.2380952   0.4123930   0.0000000), wk =   0.0400000
        k(   12) = (   0.1904762   0.3299144   0.0000000), wk =   0.0400000
        k(   13) = (   0.1428571   0.2474358   0.0000000), wk =   0.0400000
        k(   14) = (   0.0952381   0.1649572   0.0000000), wk =   0.0400000
        k(   15) = (   0.0476190   0.0824786   0.0000000), wk =   0.0400000
        k(   16) = (   0.0000000   0.0000000   0.0000000), wk =   0.0400000
        k(   17) = (   0.0000000   0.0000000   0.1120009), wk =   0.0400000
        k(   18) = (   0.0000000   0.0000000   0.2240018), wk =   0.0400000
        k(   19) = (   0.0000000   0.0000000   0.3360027), wk =   0.0400000
        k(   20) = (   0.0000000   0.0000000   0.4480037), wk =   0.0400000
        k(   21) = (   0.0833333   0.0481125   0.4480037), wk =   0.0400000
        k(   22) = (   0.1666667   0.0962250   0.4480037), wk =   0.0400000
        k(   23) = (   0.2500000   0.1443376   0.4480037), wk =   0.0400000
        k(   24) = (   0.3333333   0.1924501   0.4480037), wk =   0.0400000
        k(   25) = (   0.4166667   0.2405626   0.4480037), wk =   0.0400000
        k(   26) = (   0.5000000   0.2886751   0.4480037), wk =   0.0400000
        k(   27) = (   0.4444444   0.3849002   0.4480037), wk =   0.0400000
        k(   28) = (   0.3888889   0.4811252   0.4480037), wk =   0.0400000
        k(   29) = (   0.3333333   0.5773503   0.4480037), wk =   0.0400000
        k(   30) = (   0.2916667   0.5051815   0.4480037), wk =   0.0400000
        k(   31) = (   0.2500000   0.4330127   0.4480037), wk =   0.0400000
        k(   32) = (   0.2083333   0.3608439   0.4480037), wk =   0.0400000
        k(   33) = (   0.1666667   0.2886751   0.4480037), wk =   0.0400000
        k(   34) = (   0.1250000   0.2165064   0.4480037), wk =   0.0400000
        k(   35) = (   0.0833333   0.1443376   0.4480037), wk =   0.0400000
        k(   36) = (   0.0416667   0.0721688   0.4480037), wk =   0.0400000
        k(   37) = (   0.0000000   0.0000000   0.4480037), wk =   0.0400000
        k(   38) = (   0.5000000   0.2886751   0.4480037), wk =   0.0400000
        k(   39) = (   0.5000000   0.2886751   0.3584029), wk =   0.0400000
        k(   40) = (   0.5000000   0.2886751   0.2688022), wk =   0.0400000
        k(   41) = (   0.5000000   0.2886751   0.1792015), wk =   0.0400000
        k(   42) = (   0.5000000   0.2886751   0.0896007), wk =   0.0400000
        k(   43) = (   0.5000000   0.2886751   0.0000000), wk =   0.0400000
        k(   44) = (   0.3333333   0.5773503   0.0000000), wk =   0.0400000
        k(   45) = (   0.3333333   0.5773503   0.0746673), wk =   0.0400000
        k(   46) = (   0.3333333   0.5773503   0.1493346), wk =   0.0400000
        k(   47) = (   0.3333333   0.5773503   0.2240018), wk =   0.0400000
        k(   48) = (   0.3333333   0.5773503   0.2986691), wk =   0.0400000
        k(   49) = (   0.3333333   0.5773503   0.3733364), wk =   0.0400000
        k(   50) = (   0.3333333   0.5773503   0.4480037), wk =   0.0400000

                       cryst. coord.
        k(    1) = (   0.0000000   0.0000000   0.0000000), wk =   0.0400000
        k(    2) = (   0.1000000   0.0000000   0.0000000), wk =   0.0400000
        k(    3) = (   0.2000000   0.0000000   0.0000000), wk =   0.0400000
        k(    4) = (   0.3000000   0.0000000   0.0000000), wk =   0.0400000
        k(    5) = (   0.4000000   0.0000000   0.0000000), wk =   0.0400000
        k(    6) = (   0.5000000   0.0000000   0.0000000), wk =   0.0400000
        k(    7) = (   0.4444444   0.1111111   0.0000000), wk =   0.0400000
        k(    8) = (   0.3888889   0.2222222   0.0000000), wk =   0.0400000
        k(    9) = (   0.3333333   0.3333333   0.0000000), wk =   0.0400000
        k(   10) = (   0.2857143   0.2857143   0.0000000), wk =   0.0400000
        k(   11) = (   0.2380952   0.2380952   0.0000000), wk =   0.0400000
        k(   12) = (   0.1904762   0.1904762   0.0000000), wk =   0.0400000
        k(   13) = (   0.1428571   0.1428571   0.0000000), wk =   0.0400000
        k(   14) = (   0.0952381   0.0952381   0.0000000), wk =   0.0400000
        k(   15) = (   0.0476190   0.0476190   0.0000000), wk =   0.0400000
        k(   16) = (   0.0000000   0.0000000   0.0000000), wk =   0.0400000
        k(   17) = (   0.0000000   0.0000000   0.1250000), wk =   0.0400000
        k(   18) = (   0.0000000   0.0000000   0.2500000), wk =   0.0400000
        k(   19) = (   0.0000000   0.0000000   0.3750000), wk =   0.0400000
        k(   20) = (   0.0000000   0.0000000   0.5000000), wk =   0.0400000
        k(   21) = (   0.0833333   0.0000000   0.5000000), wk =   0.0400000
        k(   22) = (   0.1666667   0.0000000   0.5000000), wk =   0.0400000
        k(   23) = (   0.2500000   0.0000000   0.5000000), wk =   0.0400000
        k(   24) = (   0.3333333   0.0000000   0.5000000), wk =   0.0400000
        k(   25) = (   0.4166667   0.0000000   0.5000000), wk =   0.0400000
        k(   26) = (   0.5000000   0.0000000   0.5000000), wk =   0.0400000
        k(   27) = (   0.4444444   0.1111111   0.5000000), wk =   0.0400000
        k(   28) = (   0.3888889   0.2222222   0.5000000), wk =   0.0400000
        k(   29) = (   0.3333333   0.3333333   0.5000000), wk =   0.0400000
        k(   30) = (   0.2916667   0.2916667   0.5000000), wk =   0.0400000
        k(   31) = (   0.2500000   0.2500000   0.5000000), wk =   0.0400000
        k(   32) = (   0.2083333   0.2083333   0.5000000), wk =   0.0400000
        k(   33) = (   0.1666667   0.1666667   0.5000000), wk =   0.0400000
        k(   34) = (   0.1250000   0.1250000   0.5000000), wk =   0.0400000
        k(   35) = (   0.0833333   0.0833333   0.5000000), wk =   0.0400000
        k(   36) = (   0.0416667   0.0416667   0.5000000), wk =   0.0400000
        k(   37) = (   0.0000000   0.0000000   0.5000000), wk =   0.0400000
        k(   38) = (   0.5000000   0.0000000   0.5000000), wk =   0.0400000
        k(   39) = (   0.5000000   0.0000000   0.4000000), wk =   0.0400000
        k(   40) = (   0.5000000   0.0000000   0.3000000), wk =   0.0400000
        k(   41) = (   0.5000000   0.0000000   0.2000000), wk =   0.0400000
        k(   42) = (   0.5000000   0.0000000   0.1000000), wk =   0.0400000
        k(   43) = (   0.5000000   0.0000000   0.0000000), wk =   0.0400000
        k(   44) = (   0.3333333   0.3333333   0.0000000), wk =   0.0400000
        k(   45) = (   0.3333333   0.3333333   0.0833333), wk =   0.0400000
        k(   46) = (   0.3333333   0.3333333   0.1666667), wk =   0.0400000
        k(   47) = (   0.3333333   0.3333333   0.2500000), wk =   0.0400000
        k(   48) = (   0.3333333   0.3333333   0.3333333), wk =   0.0400000
        k(   49) = (   0.3333333   0.3333333   0.4166667), wk =   0.0400000
        k(   50) = (   0.3333333   0.3333333   0.5000000), wk =   0.0400000

     Dense  grid:    28885 G-vectors     FFT dimensions: (  40,  40,  45)

     Smooth grid:    20643 G-vectors     FFT dimensions: (  36,  36,  40)

     Estimated max dynamical RAM per process >      40.84Mb

     The potential is recalculated from file :
     ./pwscf.save/charge-density.dat

     Starting wfc are   12 randomized atomic wfcs +    1 random wfc

     Band Structure Calculation
     Davidson diagonalization with overlap

     Computing kpt #:     1
     total cpu time spent up to now is        3.0 secs

     Computing kpt #:     2
     total cpu time spent up to now is        4.8 secs

     Computing kpt #:     3
     total cpu time spent up to now is        6.7 secs

     Computing kpt #:     4
     total cpu time spent up to now is        8.6 secs

     Computing kpt #:     5
     total cpu time spent up to now is       10.3 secs

     Computing kpt #:     6
     total cpu time spent up to now is       11.8 secs

     Computing kpt #:     7
     total cpu time spent up to now is       13.3 secs

     Computing kpt #:     8
     total cpu time spent up to now is       15.0 secs

     Computing kpt #:     9
     total cpu time spent up to now is       16.6 secs

     Computing kpt #:    10
     total cpu time spent up to now is       18.3 secs

     Computing kpt #:    11
     total cpu time spent up to now is       20.0 secs

     Computing kpt #:    12
     total cpu time spent up to now is       21.7 secs

     Computing kpt #:    13
     total cpu time spent up to now is       23.5 secs

     Computing kpt #:    14
     total cpu time spent up to now is       25.6 secs

     Computing kpt #:    15
     total cpu time spent up to now is       27.2 secs

     Computing kpt #:    16
     total cpu time spent up to now is       28.8 secs

     Computing kpt #:    17
     total cpu time spent up to now is       30.4 secs

     Computing kpt #:    18
     total cpu time spent up to now is       32.6 secs

     Computing kpt #:    19
     total cpu time spent up to now is       34.3 secs

     Computing kpt #:    20
     total cpu time spent up to now is       36.0 secs

     Computing kpt #:    21
     total cpu time spent up to now is       37.7 secs

     Computing kpt #:    22
     total cpu time spent up to now is       39.5 secs

     Computing kpt #:    23
     total cpu time spent up to now is       41.3 secs

     Computing kpt #:    24
     total cpu time spent up to now is       43.0 secs

     Computing kpt #:    25
     total cpu time spent up to now is       44.6 secs

     Computing kpt #:    26
     total cpu time spent up to now is       46.1 secs

     Computing kpt #:    27
     total cpu time spent up to now is       47.5 secs

     Computing kpt #:    28
     total cpu time spent up to now is       49.1 secs

     Computing kpt #:    29
     total cpu time spent up to now is       50.9 secs

     Computing kpt #:    30
     total cpu time spent up to now is       52.3 secs

     Computing kpt #:    31
     total cpu time spent up to now is       53.9 secs

     Computing kpt #:    32
     total cpu time spent up to now is       55.6 secs

     Computing kpt #:    33
     total cpu time spent up to now is       57.4 secs

     Computing kpt #:    34
     total cpu time spent up to now is       59.3 secs

     Computing kpt #:    35
     total cpu time spent up to now is       61.0 secs

     Computing kpt #:    36
     total cpu time spent up to now is       62.6 secs

     Computing kpt #:    37
     total cpu time spent up to now is       64.1 secs

     Computing kpt #:    38
     total cpu time spent up to now is       65.7 secs

     Computing kpt #:    39
     total cpu time spent up to now is       67.3 secs

     Computing kpt #:    40
     total cpu time spent up to now is       68.9 secs

     Computing kpt #:    41
     total cpu time spent up to now is       70.5 secs

     Computing kpt #:    42
     total cpu time spent up to now is       72.0 secs

     Computing kpt #:    43
     total cpu time spent up to now is       73.5 secs

     Computing kpt #:    44
     total cpu time spent up to now is       75.1 secs

     Computing kpt #:    45
     total cpu time spent up to now is       76.7 secs

     Computing kpt #:    46
     total cpu time spent up to now is       78.4 secs

     Computing kpt #:    47
     total cpu time spent up to now is       80.6 secs

     Computing kpt #:    48
     total cpu time spent up to now is       82.4 secs

     Computing kpt #:    49
     total cpu time spent up to now is       84.0 secs

     Computing kpt #:    50
     total cpu time spent up to now is       85.6 secs

     ethr =  5.56E-10,  avg # of iterations = 25.6

     total cpu time spent up to now is       85.6 secs

     End of band structure calculation

          k = 0.0000 0.0000 0.0000 (  2581 PWs)   bands (ev):

   -11.6106  -7.8118  -7.8118   0.0285   0.0285   0.3326   1.9063   1.9063
     3.4344   5.6661   5.6661   6.0358   9.6308

          k = 0.1000 0.0577 0.0000 (  2581 PWs)   bands (ev):

   -11.5805  -7.8408  -7.8104  -0.1990  -0.0697   0.4138   1.9028   2.0465
     3.3710   5.6192   5.6657   6.1286   9.7111

          k = 0.2000 0.1155 0.0000 (  2585 PWs)   bands (ev):

   -11.4982  -7.9230  -7.8066  -0.5500  -0.2655   0.4641   1.8813   2.1900
     3.1924   5.6576   5.7079   6.3804   9.8710

          k = 0.3000 0.1732 0.0000 (  2589 PWs)   bands (ev):

   -11.3887  -8.0383  -7.8017  -0.8109  -0.4525   0.4894   1.7335   2.1270
     3.0187   5.7199   5.9150   6.8080   9.8067

          k = 0.4000 0.2309 0.0000 (  2583 PWs)   bands (ev):

   -11.2923  -8.1440  -7.7975  -0.9428  -0.5846   0.5720   1.3862   2.0721
     2.9183   5.7392   6.0993   7.3253   9.5178

          k = 0.5000 0.2887 0.0000 (  2602 PWs)   bands (ev):

   -11.2533  -8.1877  -7.7959  -0.9780  -0.6334   0.6682   1.1610   2.0580
     2.8844   5.7419   6.1601   7.5732   9.4122

          k = 0.4444 0.3849 0.0000 (  2590 PWs)   bands (ev):

   -11.2425  -8.1662  -7.8322  -0.9568  -0.6844   0.7558   1.1657   1.9293
     2.7555   5.8989   6.3640   7.4966   9.5703

          k = 0.3889 0.4811 0.0000 (  2590 PWs)   bands (ev):

   -11.2187  -8.1070  -7.9236  -0.9059  -0.7814   0.9676   1.1758   1.6095
     2.5401   6.2886   6.6996   7.3411   9.8040

          k = 0.3333 0.5774 0.0000 (  2580 PWs)   bands (ev):

   -11.2044  -8.0245  -8.0245  -0.8528  -0.8528   1.2117   1.2117   1.2620
     2.4533   6.6546   6.6546   7.3166   9.8442

          k = 0.2857 0.4949 0.0000 (  2585 PWs)   bands (ev):

   -11.2203  -8.0789  -7.9507  -0.8766  -0.8104   0.9567   1.3078   1.4993
     2.5070   6.4031   6.7241   7.2512   9.8285

          k = 0.2381 0.4124 0.0000 (  2583 PWs)   bands (ev):

   -11.2718  -8.0820  -7.8875  -0.8616  -0.7448   0.7573   1.4715   1.7704
     2.6418   6.1457   6.5310   7.0537   9.7708

          k = 0.1905 0.3299 0.0000 (  2585 PWs)   bands (ev):

   -11.3533  -8.0360  -7.8433  -0.7919  -0.6247   0.6281   1.6554   2.0250
     2.8301   5.9352   6.1759   6.7858   9.7316

          k = 0.1429 0.2474 0.0000 (  2595 PWs)   bands (ev):

   -11.4470  -7.9615  -7.8195  -0.6444  -0.4423   0.5432   1.7989   2.1903
     3.0505   5.7845   5.8178   6.5091   9.7461

          k = 0.0952 0.1650 0.0000 (  2575 PWs)   bands (ev):

   -11.5318  -7.8858  -7.8114  -0.4124  -0.2275   0.4752   1.8761   2.1758
     3.2569   5.6257   5.6952   6.2689   9.7528

          k = 0.0476 0.0825 0.0000 (  2581 PWs)   bands (ev):

   -11.5900  -7.8314  -7.8110  -0.1367  -0.0449   0.3991   1.9023   2.0104
     3.3915   5.6283   5.6654   6.1000   9.6889

          k = 0.0000 0.0000 0.0000 (  2581 PWs)   bands (ev):

   -11.6106  -7.8118  -7.8118   0.0285   0.0285   0.3326   1.9063   1.9063
     3.4344   5.6661   5.6661   6.0358   9.6308

          k = 0.0000 0.0000 0.1120 (  2587 PWs)   bands (ev):

   -11.5412  -8.5662  -7.0822  -0.2283   0.2084   0.3630   1.9276   2.0558
     3.3206   5.5422   5.5742   5.8960   9.9822

          k = 0.0000 0.0000 0.2240 (  2605 PWs)   bands (ev):

   -11.3346  -9.2945  -6.4461  -0.5352   0.3454   0.4389   2.0585   2.3491
     3.0346   5.3247   5.3328   5.5996  10.7309

          k = 0.0000 0.0000 0.3360 (  2581 PWs)   bands (ev):

   -10.9955  -9.9591  -5.9946  -0.7984   0.4626   0.5151   2.2279   2.6590
     2.7021   5.1281   5.1572   5.3071  10.3971

          k = 0.0000 0.0000 0.4480 (  2600 PWs)   bands (ev):

   -10.5326 -10.5326  -5.8276  -0.9047   0.5309   0.5309   2.4283   2.4283
     2.7977   5.0868   5.1228   5.1228  10.2793

          k = 0.0833 0.0481 0.4480 (  2594 PWs)   bands (ev):

   -10.5192 -10.5134  -5.8800  -0.9456   0.4514   0.4628   2.4192   2.4577
     2.7873   5.1290   5.1986   5.3174  10.3048

          k = 0.1667 0.0962 0.4480 (  2602 PWs)   bands (ev):

   -10.4823 -10.4596  -6.0221  -1.0657   0.2366   0.3012   2.3889   2.5806
     2.7745   5.2268   5.4168   5.7717  10.4292

          k = 0.2500 0.1443 0.4480 (  2584 PWs)   bands (ev):

   -10.4306 -10.3819  -6.2148  -1.2502  -0.0174   0.1129   2.3272   2.6841
     2.9139   5.3277   5.7315   6.2355  10.3541

          k = 0.3333 0.1925 0.4480 (  2576 PWs)   bands (ev):

   -10.3775 -10.2986  -6.4074  -1.4559  -0.2196  -0.0515   2.2536   2.6633
     3.2594   5.3715   6.0560   6.5292  10.1979

          k = 0.4167 0.2406 0.4480 (  2570 PWs)   bands (ev):

   -10.3376 -10.2335  -6.5494  -1.6165  -0.3397  -0.1610   2.1970   2.6371
     3.5933   5.3318   6.2948   6.6431  10.1166

          k = 0.5000 0.2887 0.4480 (  2552 PWs)   bands (ev):

   -10.3228 -10.2087  -6.6017  -1.6768  -0.3787  -0.1993   2.1760   2.6265
     3.7421   5.2881   6.3817   6.6673  10.0902

          k = 0.4444 0.3849 0.4480 (  2570 PWs)   bands (ev):

   -10.3070 -10.2092  -6.6162  -1.6529  -0.4786  -0.3451   2.4588   2.7016
     3.7320   5.1907   6.3826   6.6334  10.1314

          k = 0.3889 0.4811 0.4480 (  2570 PWs)   bands (ev):

   -10.2684 -10.2139  -6.6494  -1.6038  -0.6611  -0.5901   2.8275   3.0596
     3.6765   4.9412   6.4023   6.5593  10.2848

          k = 0.3333 0.5774 0.4480 (  2544 PWs)   bands (ev):

   -10.2311 -10.2311  -6.6703  -1.5834  -0.7202  -0.7202   2.8772   3.5240
     3.5240   4.7602   6.4718   6.4718  10.4117

          k = 0.2917 0.5052 0.4480 (  2568 PWs)   bands (ev):

   -10.2570 -10.2222  -6.6510  -1.5816  -0.7013  -0.6364   2.8547   3.3402
     3.5043   4.8835   6.3934   6.5485  10.3364

          k = 0.2500 0.4330 0.4480 (  2578 PWs)   bands (ev):

   -10.2953 -10.2399  -6.5840  -1.5471  -0.5867  -0.4786   2.8018   3.1251
     3.2772   5.0939   6.2946   6.6020  10.2055

          k = 0.2083 0.3608 0.4480 (  2570 PWs)   bands (ev):

   -10.3439 -10.2846  -6.4656  -1.4572  -0.3963  -0.2839   2.7326   2.9228
     3.0164   5.2224   6.1559   6.5658  10.1455

          k = 0.1667 0.2887 0.4480 (  2594 PWs)   bands (ev):

   -10.3977 -10.3481  -6.3075  -1.3192  -0.1585  -0.0750   2.6281   2.7894
     2.8008   5.2480   5.9500   6.3794  10.2161

          k = 0.1250 0.2165 0.4480 (  2596 PWs)   bands (ev):

   -10.4500 -10.4170  -6.1342  -1.1627   0.0921   0.1354   2.5095   2.6189
     2.7687   5.2119   5.6801   6.0387  10.4136

          k = 0.0833 0.1443 0.4480 (  2600 PWs)   bands (ev):

   -10.4936 -10.4774  -5.9771  -1.0254   0.3162   0.3306   2.4389   2.5076
     2.7739   5.1575   5.4006   5.6214  10.3820

          k = 0.0417 0.0722 0.4480 (  2588 PWs)   bands (ev):

   -10.5225 -10.5182  -5.8671  -0.9354   0.4737   0.4762   2.4238   2.4473
     2.7896   5.1120   5.1920   5.2658  10.2972

          k = 0.0000 0.0000 0.4480 (  2600 PWs)   bands (ev):

   -10.5326 -10.5326  -5.8276  -0.9047   0.5309   0.5309   2.4283   2.4283
     2.7977   5.0868   5.1228   5.1228  10.2793

          k = 0.5000 0.2887 0.4480 (  2552 PWs)   bands (ev):

   -10.3228 -10.2087  -6.6017  -1.6768  -0.3787  -0.1993   2.1760   2.6265
     3.7421   5.2881   6.3817   6.6673  10.0902

          k = 0.5000 0.2887 0.3584 (  2576 PWs)   bands (ev):

   -10.6131  -9.8622  -6.6705  -1.5931  -0.5612   0.0103   2.1561   2.5217
     3.5622   5.4142   6.3521   6.7594  10.1277

          k = 0.5000 0.2887 0.2688 (  2578 PWs)   bands (ev):

   -10.8874  -9.4229  -6.8655  -1.3640  -0.7564   0.2705   2.1238   2.1866
     3.2778   5.5629   6.3421   6.9602  10.1073

          k = 0.5000 0.2887 0.1792 (  2572 PWs)   bands (ev):

   -11.0890  -8.9586  -7.1599  -1.0517  -0.8882   0.4727   1.7204   2.1271
     3.0404   5.6874   6.2369   7.2491   9.8585

          k = 0.5000 0.2887 0.0896 (  2590 PWs)   bands (ev):

   -11.2120  -8.4988  -7.5185  -0.9576  -0.7598   0.6057   1.3321   2.0948
     2.9076   5.7579   6.1501   7.4850   9.5490

          k = 0.5000 0.2887 0.0000 (  2602 PWs)   bands (ev):

   -11.2533  -8.1877  -7.7959  -0.9780  -0.6334   0.6682   1.1610   2.0580
     2.8844   5.7419   6.1601   7.5732   9.4122

          k = 0.3333 0.5774 0.0000 (  2580 PWs)   bands (ev):

   -11.2044  -8.0245  -8.0245  -0.8528  -0.8528   1.2117   1.2117   1.2620
     2.4533   6.6546   6.6546   7.3166   9.8442

          k = 0.3333 0.5774 0.0747 (  2583 PWs)   bands (ev):

   -11.1760  -8.4011  -7.6701  -0.9778  -0.8025   1.0636   1.0814   1.5606
     2.6223   6.4594   6.7879   7.2465   9.9451

          k = 0.3333 0.5774 0.1493 (  2589 PWs)   bands (ev):

   -11.0911  -8.7886  -7.3488  -1.0800  -0.9144   0.7079   1.2133   1.9969
     2.9571   6.1960   6.8477   7.0620  10.2349

          k = 0.3333 0.5774 0.2240 (  2571 PWs)   bands (ev):

   -10.9513  -9.1760  -7.0731  -1.1369  -1.1141   0.2982   1.6095   2.4541
     3.2870   5.8485   6.8205   6.8231  10.6040

          k = 0.3333 0.5774 0.2987 (  2553 PWs)   bands (ev):

   -10.7587  -9.5522  -6.8576  -1.3640  -1.0655  -0.0915   2.1290   2.8896
     3.5289   5.4193   6.6025   6.7153  10.4308

          k = 0.3333 0.5774 0.3733 (  2565 PWs)   bands (ev):

   -10.5171  -9.9070  -6.7186  -1.5255  -0.9327  -0.4362   2.6338   3.2628
     3.6195   4.9807   6.4720   6.5760  10.3961

          k = 0.3333 0.5774 0.4480 (  2544 PWs)   bands (ev):

   -10.2311 -10.2311  -6.6703  -1.5834  -0.7202  -0.7202   2.8772   3.5240
     3.5240   4.7602   6.4718   6.4718  10.4117

     Writing output data file pwscf.save

     init_run     :      0.92s CPU      1.13s WALL (       1 calls)
     electrons    :    101.59s CPU     84.31s WALL (       1 calls)

     Called by init_run:
     wfcinit      :      0.02s CPU      0.00s WALL (       1 calls)
     wfcinit:atom :      0.14s CPU      0.06s WALL (      50 calls)
     wfcinit:wfcr :      4.84s CPU      4.20s WALL (      50 calls)
     potinit      :      0.06s CPU      0.12s WALL (       1 calls)

     Called by electrons:
     c_bands      :    101.58s CPU     84.30s WALL (       1 calls)
     v_of_rho     :      0.06s CPU      0.09s WALL (       1 calls)
     v_h          :      0.00s CPU      0.01s WALL (       1 calls)
     v_xc         :      0.06s CPU      0.09s WALL (       1 calls)
     newd         :      0.12s CPU      0.27s WALL (       1 calls)

     Called by c_bands:
     init_us_2    :      0.19s CPU      0.15s WALL (      50 calls)
     cegterg      :     95.42s CPU     79.02s WALL (      87 calls)

     Called by sum_band:

     Called by *egterg:
     h_psi        :     84.05s CPU     68.46s WALL (    1419 calls)
     s_psi        :      2.50s CPU      2.06s WALL (    1419 calls)
     g_psi        :      0.36s CPU      0.34s WALL (    1282 calls)
     cdiaghg      :      4.25s CPU      4.85s WALL (    1332 calls)
     cegterg:over :      3.75s CPU      2.94s WALL (    1282 calls)
     cegterg:upda :      3.06s CPU      2.24s WALL (    1282 calls)
     cegterg:last :      1.58s CPU      1.51s WALL (     286 calls)

     Called by h_psi:
     h_psi:pot    :     83.67s CPU     68.23s WALL (    1419 calls)
     h_psi:calbec :      2.39s CPU      2.14s WALL (    1419 calls)
     vloc_psi     :     78.39s CPU     63.56s WALL (    1419 calls)
     add_vuspsi   :      2.88s CPU      2.48s WALL (    1419 calls)

     General routines
     calbec       :      2.38s CPU      2.11s WALL (    1419 calls)
     fft          :      0.00s CPU      0.05s WALL (      13 calls)
     ffts         :      0.00s CPU      0.00s WALL (       1 calls)
     fftw         :     72.53s CPU     59.14s WALL (   22488 calls)
     interpolate  :      0.00s CPU      0.01s WALL (       1 calls)
     davcio       :      0.00s CPU      0.01s WALL (      50 calls)

     Parallel routines
     fft_scatter  :      2.36s CPU      2.21s WALL (   22502 calls)

     PWSCF        :  1m42.83s CPU     1m25.99s WALL


   This run was terminated on:  13:42:57  26Feb2021            

=------------------------------------------------------------------------------=
   JOB DONE.
=------------------------------------------------------------------------------=
