
     Program PWSCF v.6.0 (svn rev. 13079) starts on 25Feb2021 at 17:20:15 

     This program is part of the open-source Quantum ESPRESSO suite
     for quantum simulation of materials; please cite
         "P. Giannozzi et al., J. Phys.:Condens. Matter 21 395502 (2009);
          URL http://www.quantum-espresso.org", 
     in publications or presentations arising from this work. More details at
     http://www.quantum-espresso.org/quote

     Parallel version (MPI), running on     1 processors
     Reading input from espresso.pwi
Warning: card &IONS ignored
Warning: card / ignored
Warning: card &CELL ignored
Warning: card / ignored

     Current dimensions of program PWSCF are:
     Max number of different atomic species (ntypx) = 10
     Max number of k-points (npk) =  40000
     Max angular momentum in pseudopotentials (lmaxx) =  3
     Message from routine input:
     WARNING: "startingwfc" set to atomic+random may spoil restart

     Atomic positions and unit cell read from directory:
     ./pwscf.save/


     IMPORTANT: XC functional enforced from input :
     Exchange-correlation      = PBE ( 1  4  3  4 0 0)
     Any further DFT definition will be discarded
     Please, verify this is what you really want


     Subspace diagonalization in iterative solution of the eigenvalue problem:
     a serial algorithm will be used


     G-vector sticks info
     --------------------
     sticks:   dense  smooth     PW     G-vecs:    dense   smooth      PW
     Sum         511     421    121                15025    10707    1797



     bravais-lattice index     =            0
     lattice parameter (alat)  =       6.1076  a.u.
     unit-cell volume          =     314.2130 (a.u.)^3
     number of atoms/cell      =            2
     number of atomic types    =            1
     number of electrons       =        24.00
     number of Kohn-Sham states=           16
     kinetic-energy cutoff     =      40.0000  Ry
     charge density cutoff     =     200.0000  Ry
     Exchange-correlation      = PBE ( 1  4  3  4 0 0)

     celldm(1)=   6.107595  celldm(2)=   0.000000  celldm(3)=   0.000000
     celldm(4)=   0.000000  celldm(5)=   0.000000  celldm(6)=   0.000000

     crystal axes: (cart. coord. in units of alat)
               a(1) = (   1.000000   0.000000   0.000000 )  
               a(2) = (  -0.500000   0.866025   0.000000 )  
               a(3) = (   0.000000   0.000000   1.592512 )  

     reciprocal axes: (cart. coord. in units 2 pi/alat)
               b(1) = (  1.000000  0.577350 -0.000000 )  
               b(2) = (  0.000000  1.154701  0.000000 )  
               b(3) = (  0.000000 -0.000000  0.627939 )  


     PseudoPot. # 1 for Zr read from file:
     /home/inukai/tango/tests/1element/qe_fit_v2_Zr/../pseudo/zr_pbe_v1.uspp.F.UPF
     MD5 check sum: 5db81b1e868ab7776c4564c113de050b
     Pseudo is Ultrasoft + core correction, Zval = 12.0
     Generated by new atomic code, or converted to UPF format
     Using radial grid of  887 points,  6 beta functions with: 
                l(1) =   0
                l(2) =   0
                l(3) =   1
                l(4) =   1
                l(5) =   2
                l(6) =   2
     Q(r) pseudized with  6 coefficients,  rinner =    1.200   1.200   1.200
                                                       1.200   1.200

     atomic species   valence    mass     pseudopotential
        Zr            12.00    91.22400     Zr( 1.00)

     12 Sym. Ops. (no inversion) found
          (note: 12 additional sym.ops. were found but ignored
           their fractional translations are incommensurate with FFT grid)

                                    s                        frac. trans.

      isym =  1     identity                                     

 cryst.   s( 1) = (     1          0          0      )
                  (     0          1          0      )
                  (     0          0          1      )

 cart.    s( 1) = (  1.0000000  0.0000000  0.0000000 )
                  (  0.0000000  1.0000000  0.0000000 )
                  (  0.0000000  0.0000000  1.0000000 )


      isym =  2     180 deg rotation - cart. axis [0,1,0]        

 cryst.   s( 2) = (    -1          0          0      )
                  (     1          1          0      )
                  (     0          0         -1      )

 cart.    s( 2) = ( -1.0000000 -0.0000000  0.0000000 )
                  (  0.0000000  1.0000000  0.0000000 )
                  (  0.0000000  0.0000000 -1.0000000 )


      isym =  3     120 deg rotation - cryst. axis [0,0,1]       

 cryst.   s( 3) = (     0          1          0      )
                  (    -1         -1          0      )
                  (     0          0          1      )

 cart.    s( 3) = ( -0.5000000 -0.8660254  0.0000000 )
                  (  0.8660254 -0.5000000  0.0000000 )
                  (  0.0000000  0.0000000  1.0000000 )


      isym =  4     120 deg rotation - cryst. axis [0,0,-1]      

 cryst.   s( 4) = (    -1         -1          0      )
                  (     1          0          0      )
                  (     0          0          1      )

 cart.    s( 4) = ( -0.5000000  0.8660254  0.0000000 )
                  ( -0.8660254 -0.5000000  0.0000000 )
                  (  0.0000000  0.0000000  1.0000000 )


      isym =  5     180 deg rotation - cryst. axis [1,-1,0]      

 cryst.   s( 5) = (     0         -1          0      )
                  (    -1          0          0      )
                  (     0          0         -1      )

 cart.    s( 5) = (  0.5000000 -0.8660254  0.0000000 )
                  ( -0.8660254 -0.5000000  0.0000000 )
                  (  0.0000000  0.0000000 -1.0000000 )


      isym =  6     180 deg rotation - cryst. axis [2,1,0]       

 cryst.   s( 6) = (     1          1          0      )
                  (     0         -1          0      )
                  (     0          0         -1      )

 cart.    s( 6) = (  0.5000000  0.8660254  0.0000000 )
                  (  0.8660254 -0.5000000  0.0000000 )
                  (  0.0000000  0.0000000 -1.0000000 )


      isym =  7     inv. 180 deg rotation - cart. axis [0,0,1]   

 cryst.   s( 7) = (     1          0          0      )
                  (     0          1          0      )
                  (     0          0         -1      )

 cart.    s( 7) = (  1.0000000  0.0000000  0.0000000 )
                  (  0.0000000  1.0000000  0.0000000 )
                  (  0.0000000  0.0000000 -1.0000000 )


      isym =  8     inv. 180 deg rotation - cart. axis [1,0,0]   

 cryst.   s( 8) = (    -1          0          0      )
                  (     1          1          0      )
                  (     0          0          1      )

 cart.    s( 8) = ( -1.0000000 -0.0000000  0.0000000 )
                  (  0.0000000  1.0000000  0.0000000 )
                  (  0.0000000  0.0000000  1.0000000 )


      isym =  9     inv.  60 deg rotation - cryst. axis [0,0,1]  

 cryst.   s( 9) = (    -1         -1          0      )
                  (     1          0          0      )
                  (     0          0         -1      )

 cart.    s( 9) = ( -0.5000000  0.8660254  0.0000000 )
                  ( -0.8660254 -0.5000000  0.0000000 )
                  (  0.0000000  0.0000000 -1.0000000 )


      isym = 10     inv.  60 deg rotation - cryst. axis [0,0,-1] 

 cryst.   s(10) = (     0          1          0      )
                  (    -1         -1          0      )
                  (     0          0         -1      )

 cart.    s(10) = ( -0.5000000 -0.8660254  0.0000000 )
                  (  0.8660254 -0.5000000  0.0000000 )
                  (  0.0000000  0.0000000 -1.0000000 )


      isym = 11     inv. 180 deg rotation - cryst. axis [0,1,0]  

 cryst.   s(11) = (     1          1          0      )
                  (     0         -1          0      )
                  (     0          0          1      )

 cart.    s(11) = (  0.5000000  0.8660254  0.0000000 )
                  (  0.8660254 -0.5000000  0.0000000 )
                  (  0.0000000  0.0000000  1.0000000 )


      isym = 12     inv. 180 deg rotation - cryst. axis [1,1,0]  

 cryst.   s(12) = (     0         -1          0      )
                  (    -1          0          0      )
                  (     0          0          1      )

 cart.    s(12) = (  0.5000000 -0.8660254  0.0000000 )
                  ( -0.8660254 -0.5000000  0.0000000 )
                  (  0.0000000  0.0000000  1.0000000 )


   Cartesian axes

     site n.     atom                  positions (alat units)
         1           Zr  tau(   1) = (   0.0000000   0.0000000   0.0000000  )
         2           Zr  tau(   2) = (  -0.0000000   0.5773503   0.7962562  )

   Crystallographic axes

     site n.     atom                  positions (cryst. coord.)
         1           Zr  tau(   1) = (  0.0000000  0.0000000  0.0000000  )
         2           Zr  tau(   2) = (  0.3333333  0.6666667  0.5000000  )

     number of k points=    50  gaussian smearing, width (Ry)=  0.0010
                       cart. coord. in units 2pi/alat
        k(    1) = (   0.0000000   0.0000000   0.0000000), wk =   0.0400000
        k(    2) = (   0.0357143   0.0206197   0.0000000), wk =   0.0400000
        k(    3) = (   0.0714286   0.0412393   0.0000000), wk =   0.0400000
        k(    4) = (   0.1071429   0.0618590   0.0000000), wk =   0.0400000
        k(    5) = (   0.1428571   0.0824786   0.0000000), wk =   0.0400000
        k(    6) = (   0.1785714   0.1030983   0.0000000), wk =   0.0400000
        k(    7) = (   0.2142857   0.1237179   0.0000000), wk =   0.0400000
        k(    8) = (   0.2500000   0.1443376   0.0000000), wk =   0.0400000
        k(    9) = (   0.2857143   0.1649572   0.0000000), wk =   0.0400000
        k(   10) = (   0.3214286   0.1855769   0.0000000), wk =   0.0400000
        k(   11) = (   0.3571429   0.2061965   0.0000000), wk =   0.0400000
        k(   12) = (   0.3928571   0.2268162   0.0000000), wk =   0.0400000
        k(   13) = (   0.4285714   0.2474358   0.0000000), wk =   0.0400000
        k(   14) = (   0.4642857   0.2680555   0.0000000), wk =   0.0400000
        k(   15) = (   0.5000000   0.2886751   0.0000000), wk =   0.0400000
        k(   16) = (   0.4791667   0.3247595   0.0000000), wk =   0.0400000
        k(   17) = (   0.4583333   0.3608439   0.0000000), wk =   0.0400000
        k(   18) = (   0.4375000   0.3969283   0.0000000), wk =   0.0400000
        k(   19) = (   0.4166667   0.4330127   0.0000000), wk =   0.0400000
        k(   20) = (   0.3958333   0.4690971   0.0000000), wk =   0.0400000
        k(   21) = (   0.3750000   0.5051815   0.0000000), wk =   0.0400000
        k(   22) = (   0.3541667   0.5412659   0.0000000), wk =   0.0400000
        k(   23) = (   0.3333333   0.5773503   0.0000000), wk =   0.0400000
        k(   24) = (   0.3148148   0.5452753   0.0000000), wk =   0.0400000
        k(   25) = (   0.2962963   0.5132002   0.0000000), wk =   0.0400000
        k(   26) = (   0.2777778   0.4811252   0.0000000), wk =   0.0400000
        k(   27) = (   0.2592593   0.4490502   0.0000000), wk =   0.0400000
        k(   28) = (   0.2407407   0.4169752   0.0000000), wk =   0.0400000
        k(   29) = (   0.2222222   0.3849002   0.0000000), wk =   0.0400000
        k(   30) = (   0.2037037   0.3528252   0.0000000), wk =   0.0400000
        k(   31) = (   0.1851852   0.3207501   0.0000000), wk =   0.0400000
        k(   32) = (   0.1666667   0.2886751   0.0000000), wk =   0.0400000
        k(   33) = (   0.1481481   0.2566001   0.0000000), wk =   0.0400000
        k(   34) = (   0.1296296   0.2245251   0.0000000), wk =   0.0400000
        k(   35) = (   0.1111111   0.1924501   0.0000000), wk =   0.0400000
        k(   36) = (   0.0925926   0.1603751   0.0000000), wk =   0.0400000
        k(   37) = (   0.0740741   0.1283001   0.0000000), wk =   0.0400000
        k(   38) = (   0.0555556   0.0962250   0.0000000), wk =   0.0400000
        k(   39) = (   0.0370370   0.0641500   0.0000000), wk =   0.0400000
        k(   40) = (   0.0185185   0.0320750   0.0000000), wk =   0.0400000
        k(   41) = (   0.0000000   0.0000000   0.0000000), wk =   0.0400000
        k(   42) = (   0.0000000   0.0000000   0.0348855), wk =   0.0400000
        k(   43) = (   0.0000000   0.0000000   0.0697710), wk =   0.0400000
        k(   44) = (   0.0000000   0.0000000   0.1046564), wk =   0.0400000
        k(   45) = (   0.0000000   0.0000000   0.1395419), wk =   0.0400000
        k(   46) = (   0.0000000   0.0000000   0.1744274), wk =   0.0400000
        k(   47) = (   0.0000000   0.0000000   0.2093129), wk =   0.0400000
        k(   48) = (   0.0000000   0.0000000   0.2441983), wk =   0.0400000
        k(   49) = (   0.0000000   0.0000000   0.2790838), wk =   0.0400000
        k(   50) = (   0.0000000   0.0000000   0.3139693), wk =   0.0400000

                       cryst. coord.
        k(    1) = (   0.0000000   0.0000000   0.0000000), wk =   0.0400000
        k(    2) = (   0.0357143   0.0000000   0.0000000), wk =   0.0400000
        k(    3) = (   0.0714286   0.0000000   0.0000000), wk =   0.0400000
        k(    4) = (   0.1071429   0.0000000   0.0000000), wk =   0.0400000
        k(    5) = (   0.1428571   0.0000000   0.0000000), wk =   0.0400000
        k(    6) = (   0.1785714   0.0000000   0.0000000), wk =   0.0400000
        k(    7) = (   0.2142857   0.0000000   0.0000000), wk =   0.0400000
        k(    8) = (   0.2500000   0.0000000   0.0000000), wk =   0.0400000
        k(    9) = (   0.2857143   0.0000000   0.0000000), wk =   0.0400000
        k(   10) = (   0.3214286   0.0000000   0.0000000), wk =   0.0400000
        k(   11) = (   0.3571429   0.0000000   0.0000000), wk =   0.0400000
        k(   12) = (   0.3928571   0.0000000   0.0000000), wk =   0.0400000
        k(   13) = (   0.4285714   0.0000000   0.0000000), wk =   0.0400000
        k(   14) = (   0.4642857   0.0000000   0.0000000), wk =   0.0400000
        k(   15) = (   0.5000000   0.0000000   0.0000000), wk =   0.0400000
        k(   16) = (   0.4791667   0.0416667   0.0000000), wk =   0.0400000
        k(   17) = (   0.4583333   0.0833333   0.0000000), wk =   0.0400000
        k(   18) = (   0.4375000   0.1250000   0.0000000), wk =   0.0400000
        k(   19) = (   0.4166667   0.1666667   0.0000000), wk =   0.0400000
        k(   20) = (   0.3958333   0.2083333   0.0000000), wk =   0.0400000
        k(   21) = (   0.3750000   0.2500000   0.0000000), wk =   0.0400000
        k(   22) = (   0.3541667   0.2916667   0.0000000), wk =   0.0400000
        k(   23) = (   0.3333333   0.3333333   0.0000000), wk =   0.0400000
        k(   24) = (   0.3148148   0.3148148   0.0000000), wk =   0.0400000
        k(   25) = (   0.2962963   0.2962963   0.0000000), wk =   0.0400000
        k(   26) = (   0.2777778   0.2777778   0.0000000), wk =   0.0400000
        k(   27) = (   0.2592593   0.2592593   0.0000000), wk =   0.0400000
        k(   28) = (   0.2407407   0.2407407   0.0000000), wk =   0.0400000
        k(   29) = (   0.2222222   0.2222222   0.0000000), wk =   0.0400000
        k(   30) = (   0.2037037   0.2037037   0.0000000), wk =   0.0400000
        k(   31) = (   0.1851852   0.1851852   0.0000000), wk =   0.0400000
        k(   32) = (   0.1666667   0.1666667   0.0000000), wk =   0.0400000
        k(   33) = (   0.1481481   0.1481481   0.0000000), wk =   0.0400000
        k(   34) = (   0.1296296   0.1296296   0.0000000), wk =   0.0400000
        k(   35) = (   0.1111111   0.1111111   0.0000000), wk =   0.0400000
        k(   36) = (   0.0925926   0.0925926   0.0000000), wk =   0.0400000
        k(   37) = (   0.0740741   0.0740741   0.0000000), wk =   0.0400000
        k(   38) = (   0.0555556   0.0555556   0.0000000), wk =   0.0400000
        k(   39) = (   0.0370370   0.0370370   0.0000000), wk =   0.0400000
        k(   40) = (   0.0185185   0.0185185   0.0000000), wk =   0.0400000
        k(   41) = (   0.0000000   0.0000000   0.0000000), wk =   0.0400000
        k(   42) = (   0.0000000   0.0000000   0.0555556), wk =   0.0400000
        k(   43) = (   0.0000000   0.0000000   0.1111111), wk =   0.0400000
        k(   44) = (   0.0000000   0.0000000   0.1666667), wk =   0.0400000
        k(   45) = (   0.0000000   0.0000000   0.2222222), wk =   0.0400000
        k(   46) = (   0.0000000   0.0000000   0.2777778), wk =   0.0400000
        k(   47) = (   0.0000000   0.0000000   0.3333333), wk =   0.0400000
        k(   48) = (   0.0000000   0.0000000   0.3888889), wk =   0.0400000
        k(   49) = (   0.0000000   0.0000000   0.4444444), wk =   0.0400000
        k(   50) = (   0.0000000   0.0000000   0.5000000), wk =   0.0400000

     Dense  grid:    15025 G-vectors     FFT dimensions: (  27,  27,  45)

     Smooth grid:    10707 G-vectors     FFT dimensions: (  25,  25,  40)

     Estimated max dynamical RAM per process >      24.29Mb

     Check: negative/imaginary core charge=   -0.000002    0.000000

     The potential is recalculated from file :
     ./pwscf.save/charge-density.dat


     negative rho (up, down):  1.202E-01 0.000E+00
     Starting wfc are   26 randomized atomic wfcs

     Band Structure Calculation
     Davidson diagonalization with overlap

     Computing kpt #:     1
     total cpu time spent up to now is        0.9 secs

     Computing kpt #:     2
     total cpu time spent up to now is        1.2 secs

     Computing kpt #:     3
     total cpu time spent up to now is        1.5 secs

     Computing kpt #:     4
     total cpu time spent up to now is        2.0 secs

     Computing kpt #:     5
     total cpu time spent up to now is        2.5 secs

     Computing kpt #:     6
     total cpu time spent up to now is        2.8 secs

     Computing kpt #:     7
     total cpu time spent up to now is        3.1 secs

     Computing kpt #:     8
     total cpu time spent up to now is        3.4 secs

     Computing kpt #:     9
     total cpu time spent up to now is        3.8 secs

     Computing kpt #:    10
     total cpu time spent up to now is        4.1 secs

     Computing kpt #:    11
     total cpu time spent up to now is        4.4 secs

     Computing kpt #:    12
     total cpu time spent up to now is        4.8 secs

     Computing kpt #:    13
     total cpu time spent up to now is        5.1 secs

     Computing kpt #:    14
     total cpu time spent up to now is        5.4 secs

     Computing kpt #:    15
     total cpu time spent up to now is        5.8 secs

     Computing kpt #:    16
     total cpu time spent up to now is        6.1 secs

     Computing kpt #:    17
     total cpu time spent up to now is        6.4 secs

     Computing kpt #:    18
     total cpu time spent up to now is        6.8 secs

     Computing kpt #:    19
     total cpu time spent up to now is        7.1 secs

     Computing kpt #:    20
     total cpu time spent up to now is        7.4 secs

     Computing kpt #:    21
     total cpu time spent up to now is        7.7 secs

     Computing kpt #:    22
     total cpu time spent up to now is        8.1 secs

     Computing kpt #:    23
     total cpu time spent up to now is        8.4 secs

     Computing kpt #:    24
     total cpu time spent up to now is        8.7 secs

     Computing kpt #:    25
     total cpu time spent up to now is        9.0 secs

     Computing kpt #:    26
     total cpu time spent up to now is        9.3 secs

     Computing kpt #:    27
     total cpu time spent up to now is        9.7 secs

     Computing kpt #:    28
     total cpu time spent up to now is        9.9 secs

     Computing kpt #:    29
     total cpu time spent up to now is       10.3 secs

     Computing kpt #:    30
     total cpu time spent up to now is       10.6 secs

     Computing kpt #:    31
     total cpu time spent up to now is       10.9 secs

     Computing kpt #:    32
     total cpu time spent up to now is       11.2 secs

     Computing kpt #:    33
     total cpu time spent up to now is       11.5 secs

     Computing kpt #:    34
     total cpu time spent up to now is       11.8 secs

     Computing kpt #:    35
     total cpu time spent up to now is       12.3 secs

     Computing kpt #:    36
     total cpu time spent up to now is       12.6 secs

     Computing kpt #:    37
     total cpu time spent up to now is       12.9 secs

     Computing kpt #:    38
     total cpu time spent up to now is       13.4 secs

     Computing kpt #:    39
     total cpu time spent up to now is       13.7 secs

     Computing kpt #:    40
     total cpu time spent up to now is       14.1 secs

     Computing kpt #:    41
     total cpu time spent up to now is       14.9 secs

     Computing kpt #:    42
     total cpu time spent up to now is       15.6 secs

     Computing kpt #:    43
     total cpu time spent up to now is       15.9 secs

     Computing kpt #:    44
     total cpu time spent up to now is       16.1 secs

     Computing kpt #:    45
     total cpu time spent up to now is       16.4 secs

     Computing kpt #:    46
     total cpu time spent up to now is       17.0 secs

     Computing kpt #:    47
     total cpu time spent up to now is       17.3 secs

     Computing kpt #:    48
     total cpu time spent up to now is       17.6 secs

     Computing kpt #:    49
     total cpu time spent up to now is       18.0 secs

     Computing kpt #:    50
     total cpu time spent up to now is       20.9 secs

     ethr =  4.17E-10,  avg # of iterations = 16.9

     total cpu time spent up to now is       20.9 secs

     End of band structure calculation

          k = 0.0000 0.0000 0.0000 (  1363 PWs)   bands (ev):

   -34.6939 -34.5394 -13.2186 -12.3541 -12.3541 -12.2137 -12.2128 -12.2128
     8.5083  11.1300  15.0155  15.0155  15.1679  15.3265  15.7082  15.7082

          k = 0.0357 0.0206 0.0000 (  1357 PWs)   bands (ev):

   -34.6924 -34.5388 -13.2147 -12.3628 -12.3570 -12.2219 -12.2153 -12.2139
     8.5444  11.1634  14.8736  15.0487  15.2495  15.2892  15.6753  15.7394

          k = 0.0714 0.0412 0.0000 (  1351 PWs)   bands (ev):

   -34.6881 -34.5370 -13.2030 -12.3885 -12.3654 -12.2487 -12.2204 -12.2173
     8.6516  11.2610  14.6521  15.0331  15.1479  15.4484  15.5896  15.8324

          k = 0.1071 0.0619 0.0000 (  1357 PWs)   bands (ev):

   -34.6810 -34.5341 -13.1839 -12.4300 -12.3789 -12.2913 -12.2288 -12.2229
     8.8260  11.4155  14.4058  14.7189  15.3118  15.4175  15.6585  15.9856

          k = 0.1429 0.0825 0.0000 (  1343 PWs)   bands (ev):

   -34.6715 -34.5304 -13.1578 -12.4851 -12.3964 -12.3472 -12.2407 -12.2306
     9.0616  11.6124  14.1527  14.3548  15.2514  15.5385  15.8577  15.8592

          k = 0.1786 0.1031 0.0000 (  1343 PWs)   bands (ev):

   -34.6600 -34.5262 -13.1254 -12.5510 -12.4169 -12.4128 -12.2560 -12.2402
     9.3495  11.8267  13.9169  13.9768  15.0801  15.6825  15.7177  15.8247

          k = 0.2143 0.1237 0.0000 (  1339 PWs)   bands (ev):

   -34.6468 -34.5217 -13.0875 -12.6245 -12.4845 -12.4393 -12.2748 -12.2512
     9.6777  12.0178  13.6075  13.7299  14.9366  15.5030  15.5773  16.1661

          k = 0.2500 0.1443 0.0000 (  1341 PWs)   bands (ev):

   -34.6326 -34.5173 -13.0452 -12.7017 -12.5583 -12.4624 -12.2970 -12.2632
    10.0310  12.1334  13.2609  13.6233  14.8552  15.3305  15.4425  16.5569

          k = 0.2857 0.1650 0.0000 (  1339 PWs)   bands (ev):

   -34.6179 -34.5134 -12.9998 -12.7787 -12.6307 -12.4851 -12.3222 -12.2754
    10.3901  12.1427  12.9467  13.6008  14.8679  15.1714  15.3178  16.9885

          k = 0.3214 0.1856 0.0000 (  1341 PWs)   bands (ev):

   -34.6032 -34.5102 -12.9526 -12.8516 -12.6981 -12.5064 -12.3501 -12.2873
    10.7319  12.0696  12.6716  13.6269  14.9818  15.0304  15.2070  17.4485

          k = 0.3571 0.2062 0.0000 (  1340 PWs)   bands (ev):

   -34.5894 -34.5081 -12.9167 -12.9057 -12.7576 -12.5251 -12.3797 -12.2980
    11.0316  11.9618  12.4404  13.6770  14.9109  15.1130  15.1606  17.9167

          k = 0.3929 0.2268 0.0000 (  1340 PWs)   bands (ev):

   -34.5771 -34.5070 -12.9709 -12.8615 -12.8067 -12.5407 -12.4094 -12.3071
    11.2690  11.8533  12.2569  13.7496  14.8156  15.0380  15.3470  18.3592

          k = 0.4286 0.2474 0.0000 (  1332 PWs)   bands (ev):

   -34.5671 -34.5069 -13.0115 -12.8433 -12.8236 -12.5522 -12.4364 -12.3140
    11.4367  11.7613  12.1240  13.8364  14.7463  14.9835  15.4959  18.7240

          k = 0.4643 0.2681 0.0000 (  1336 PWs)   bands (ev):

   -34.5604 -34.5073 -13.0366 -12.8658 -12.7970 -12.5594 -12.4563 -12.3183
    11.5426  11.6914  12.0435  13.9104  14.7043  14.9504  15.5866  18.9598

          k = 0.5000 0.2887 0.0000 (  1336 PWs)   bands (ev):

   -34.5581 -34.5076 -13.0452 -12.8734 -12.7872 -12.5618 -12.4637 -12.3197
    11.5910  11.6532  12.0165  13.9397  14.6902  14.9393  15.6162  19.0406

          k = 0.4792 0.3248 0.0000 (  1336 PWs)   bands (ev):

   -34.5573 -34.5077 -13.0417 -12.8702 -12.7841 -12.5684 -12.4661 -12.3277
    11.6293  11.6874  12.0202  13.9118  14.6687  14.9293  15.6227  19.0377

          k = 0.4583 0.3608 0.0000 (  1342 PWs)   bands (ev):

   -34.5550 -34.5079 -13.0316 -12.8608 -12.7748 -12.5877 -12.4730 -12.3509
    11.7413  11.7868  12.0301  13.8313  14.6097  14.8991  15.6422  19.0267

          k = 0.4375 0.3969 0.0000 (  1338 PWs)   bands (ev):

   -34.5513 -34.5084 -13.0153 -12.8457 -12.7597 -12.6176 -12.4847 -12.3874
    11.9175  11.9410  12.0435  13.7076  14.5281  14.8494  15.6754  18.7426

          k = 0.4167 0.4330 0.0000 (  1340 PWs)   bands (ev):

   -34.5465 -34.5094 -12.9937 -12.8256 -12.7390 -12.6550 -12.5011 -12.4339
    12.0565  12.1327  12.1415  13.5534  14.4441  14.7816  15.7234  18.5041

          k = 0.3958 0.4691 0.0000 (  1340 PWs)   bands (ev):

   -34.5408 -34.5110 -12.9684 -12.8022 -12.7134 -12.6954 -12.5222 -12.4859
    12.0648  12.3384  12.3887  13.3833  14.3785  14.6989  15.7868  18.3419

          k = 0.3750 0.5052 0.0000 (  1344 PWs)   bands (ev):

   -34.5346 -34.5136 -12.9423 -12.7784 -12.7329 -12.6834 -12.5481 -12.5370
    12.0662  12.5315  12.6240  13.2128  14.3479  14.6066  15.8608  18.2744

          k = 0.3542 0.5413 0.0000 (  1354 PWs)   bands (ev):

   -34.5283 -34.5173 -12.9216 -12.7610 -12.7583 -12.6500 -12.5787 -12.5775
    12.0623  12.6892  12.7947  13.0669  14.3621  14.5119  15.9279  18.3149

          k = 0.3333 0.5774 0.0000 (  1362 PWs)   bands (ev):

   -34.5224 -34.5222 -12.9141 -12.7608 -12.7606 -12.6138 -12.6137 -12.5931
    12.0591  12.7999  12.7999  13.0174  14.4230  14.4230  15.9576  18.4612

          k = 0.3148 0.5453 0.0000 (  1354 PWs)   bands (ev):

   -34.5281 -34.5174 -12.9176 -12.7766 -12.7427 -12.6485 -12.5825 -12.5800
    12.0641  12.6988  12.8599  13.0052  14.3558  14.5126  15.9288  18.2811

          k = 0.2963 0.5132 0.0000 (  1346 PWs)   bands (ev):

   -34.5351 -34.5133 -12.9221 -12.7973 -12.7129 -12.6864 -12.5574 -12.5454
    12.0837  12.5780  12.8909  12.9423  14.3056  14.6297  15.8406  18.0809

          k = 0.2778 0.4811 0.0000 (  1354 PWs)   bands (ev):

   -34.5436 -34.5100 -12.9207 -12.8143 -12.7269 -12.6776 -12.5256 -12.5106
    12.1244  12.4269  12.8516  12.9014  14.2771  14.7673  15.7002  17.8665

          k = 0.2593 0.4491 0.0000 (  1354 PWs)   bands (ev):

   -34.5533 -34.5078 -12.9098 -12.8231 -12.7696 -12.6400 -12.4911 -12.4761
    12.1913  12.2124  12.7854  12.8972  14.2744  14.9184  15.5240  17.6436

          k = 0.2407 0.4170 0.0000 (  1350 PWs)   bands (ev):

   -34.5642 -34.5067 -12.8879 -12.8215 -12.8140 -12.6019 -12.4559 -12.4424
    11.9291  12.2881  12.7702  12.8799  14.3003  15.0761  15.3321  17.4171

          k = 0.2222 0.3849 0.0000 (  1348 PWs)   bands (ev):

   -34.5762 -34.5068 -12.8593 -12.8546 -12.8088 -12.5645 -12.4213 -12.4102
    11.5973  12.4174  12.8041  12.8459  14.3569  15.1467  15.2341  17.1914

          k = 0.2037 0.3528 0.0000 (  1348 PWs)   bands (ev):

   -34.5890 -34.5079 -12.9050 -12.8104 -12.7853 -12.5285 -12.3881 -12.3796
    11.2380  12.5805  12.7865  12.8811  14.4450  14.9902  15.3868  16.9703

          k = 0.1852 0.3208 0.0000 (  1346 PWs)   bands (ev):

   -34.6024 -34.5100 -12.9503 -12.7567 -12.7519 -12.4943 -12.3570 -12.3512
    10.8671  12.6911  12.7773  12.9968  14.5643  14.8829  15.5298  16.7568

          k = 0.1667 0.2887 0.0000 (  1344 PWs)   bands (ev):

   -34.6160 -34.5129 -12.9943 -12.7101 -12.6955 -12.4624 -12.3283 -12.3252
    10.4964  12.5530  13.0070  13.1475  14.7136  14.8382  15.6594  16.5533

          k = 0.1481 0.2566 0.0000 (  1332 PWs)   bands (ev):

   -34.6296 -34.5164 -13.0363 -12.6617 -12.6293 -12.4326 -12.3024 -12.3017
    10.1361  12.3747  13.2675  13.3291  14.8581  14.8900  15.7738  16.3616

          k = 0.1296 0.2245 0.0000 (  1338 PWs)   bands (ev):

   -34.6427 -34.5203 -13.0755 -12.6093 -12.5617 -12.4047 -12.2809 -12.2797
     9.7946  12.1675  13.5364  13.5554  14.9339  15.0895  15.8724  16.1827

          k = 0.1111 0.1925 0.0000 (  1346 PWs)   bands (ev):

   -34.6550 -34.5244 -13.1112 -12.5555 -12.4971 -12.3772 -12.2630 -12.2602
     9.4799  11.9473  13.7633  13.8656  15.0512  15.3061  15.9561  16.0021

          k = 0.0926 0.1604 0.0000 (  1342 PWs)   bands (ev):

   -34.6661 -34.5284 -13.1426 -12.5031 -12.4418 -12.3472 -12.2478 -12.2442
     9.1993  11.7303  14.0022  14.1901  15.1935  15.5316  15.6994  15.8611

          k = 0.0741 0.1283 0.0000 (  1342 PWs)   bands (ev):

   -34.6757 -34.5320 -13.1692 -12.4548 -12.4022 -12.3116 -12.2354 -12.2317
     8.9593  11.5316  14.2441  14.5166  15.3408  15.4554  15.7130  15.7548

          k = 0.0556 0.0962 0.0000 (  1349 PWs)   bands (ev):

   -34.6834 -34.5351 -13.1905 -12.4134 -12.3780 -12.2737 -12.2259 -12.2227
     8.7660  11.3635  14.4795  14.8257  15.2575  15.4894  15.5671  15.9425

          k = 0.0370 0.0642 0.0000 (  1353 PWs)   bands (ev):

   -34.6892 -34.5374 -13.2060 -12.3814 -12.3639 -12.2413 -12.2191 -12.2168
     8.6241  11.2362  14.6993  15.0873  15.1230  15.4199  15.6049  15.8103

          k = 0.0185 0.0321 0.0000 (  1357 PWs)   bands (ev):

   -34.6927 -34.5389 -13.2154 -12.3611 -12.3564 -12.2201 -12.2150 -12.2137
     8.5375  11.1569  14.8940  15.0423  15.2642  15.2728  15.6815  15.7335

          k = 0.0000 0.0000 0.0000 (  1363 PWs)   bands (ev):

   -34.6939 -34.5394 -13.2186 -12.3541 -12.3541 -12.2137 -12.2128 -12.2128
     8.5083  11.1300  15.0155  15.0155  15.1679  15.3265  15.7082  15.7082

          k = 0.0000 0.0000 0.0349 (  1375 PWs)   bands (ev):

   -34.6927 -34.5406 -13.2115 -12.3530 -12.3530 -12.2219 -12.2139 -12.2139
     8.5344  11.1290  14.9991  14.9991  15.1472  15.2747  15.6875  15.6875

          k = 0.0000 0.0000 0.0698 (  1351 PWs)   bands (ev):

   -34.6893 -34.5441 -13.1902 -12.3498 -12.3498 -12.2462 -12.2171 -12.2171
     8.6120  11.1237  14.9578  14.9578  15.0867  15.1304  15.6287  15.6287

          k = 0.0000 0.0000 0.1047 (  1345 PWs)   bands (ev):

   -34.6837 -34.5499 -13.1554 -12.3447 -12.3447 -12.2856 -12.2224 -12.2224
     8.7390  11.1078  14.9074  14.9074  14.9225  14.9904  15.5400  15.5400

          k = 0.0000 0.0000 0.1395 (  1334 PWs)   bands (ev):

   -34.6761 -34.5577 -13.1079 -12.3389 -12.3377 -12.3377 -12.2295 -12.2295
     8.9119  11.0709  14.6890  14.8621  14.8621  14.8654  15.4320  15.4320

          k = 0.0000 0.0000 0.1744 (  1328 PWs)   bands (ev):

   -34.6667 -34.5674 -13.0489 -12.4039 -12.3291 -12.3291 -12.2383 -12.2383
     9.1257  10.9991  14.4689  14.7209  14.8312  14.8312  15.3155  15.3155

          k = 0.0000 0.0000 0.2093 (  1328 PWs)   bands (ev):

   -34.6557 -34.5785 -12.9800 -12.4785 -12.3190 -12.3190 -12.2484 -12.2484
     9.3735  10.8794  14.2956  14.5682  14.8199  14.8199  15.1996  15.1996

          k = 0.0000 0.0000 0.2442 (  1340 PWs)   bands (ev):

   -34.6436 -34.5908 -12.9031 -12.5601 -12.3079 -12.3079 -12.2596 -12.2596
     9.6461  10.7048  14.1911  14.4204  14.8307  14.8307  15.0916  15.0916

          k = 0.0000 0.0000 0.2791 (  1334 PWs)   bands (ev):

   -34.6307 -34.6039 -12.8202 -12.6461 -12.2961 -12.2961 -12.2715 -12.2715
     9.9316  10.4788  14.1619  14.2924  14.8644  14.8644  14.9972  14.9972

          k = 0.0000 0.0000 0.3140 (  1316 PWs)   bands (ev):

   -34.6174 -34.6172 -12.7337 -12.7336 -12.2839 -12.2839 -12.2837 -12.2837
    10.2151  10.2151  14.2006  14.2006  14.9204  14.9204  14.9205  14.9205

     Writing output data file pwscf.save

     init_run     :      0.70s CPU      0.55s WALL (       1 calls)
     electrons    :     30.33s CPU     20.23s WALL (       1 calls)

     Called by init_run:
     wfcinit      :      0.00s CPU      0.00s WALL (       1 calls)
     wfcinit:atom :      0.08s CPU      0.07s WALL (      50 calls)
     wfcinit:wfcr :      3.11s CPU      1.76s WALL (      50 calls)
     potinit      :      0.03s CPU      0.03s WALL (       1 calls)

     Called by electrons:
     c_bands      :     30.33s CPU     20.22s WALL (       1 calls)
     v_of_rho     :      0.02s CPU      0.03s WALL (       1 calls)
     v_h          :      0.00s CPU      0.00s WALL (       1 calls)
     v_xc         :      0.02s CPU      0.03s WALL (       1 calls)
     newd         :      0.03s CPU      0.09s WALL (       1 calls)

     Called by c_bands:
     init_us_2    :      0.14s CPU      0.06s WALL (      50 calls)
     cegterg      :     25.97s CPU     17.64s WALL (      54 calls)

     Called by sum_band:

     Called by *egterg:
     h_psi        :     19.42s CPU     11.51s WALL (     951 calls)
     s_psi        :      0.39s CPU      0.35s WALL (     951 calls)
     g_psi        :      0.39s CPU      0.13s WALL (     847 calls)
     cdiaghg      :      5.16s CPU      4.64s WALL (     897 calls)
     cegterg:over :      1.59s CPU      1.20s WALL (     847 calls)
     cegterg:upda :      0.98s CPU      0.93s WALL (     847 calls)
     cegterg:last :      0.52s CPU      0.25s WALL (     169 calls)

     Called by h_psi:
     h_psi:pot    :     19.19s CPU     11.40s WALL (     951 calls)
     h_psi:calbec :      1.00s CPU      1.17s WALL (     951 calls)
     vloc_psi     :     17.70s CPU      9.74s WALL (     951 calls)
     add_vuspsi   :      0.48s CPU      0.46s WALL (     951 calls)

     General routines
     calbec       :      1.00s CPU      1.16s WALL (     951 calls)
     fft          :      0.03s CPU      0.02s WALL (      13 calls)
     ffts         :      0.02s CPU      0.00s WALL (       1 calls)
     fftw         :     15.53s CPU      8.32s WALL (   18738 calls)
     interpolate  :      0.02s CPU      0.00s WALL (       1 calls)
     davcio       :      0.00s CPU      0.01s WALL (      50 calls)

     Parallel routines
     fft_scatter  :      1.20s CPU      0.74s WALL (   18752 calls)

     PWSCF        :    31.30s CPU        21.30s WALL


   This run was terminated on:  17:20:36  25Feb2021            

=------------------------------------------------------------------------------=
   JOB DONE.
=------------------------------------------------------------------------------=
