element =  Na
struct =  bcc
nbands =  -4
path =  GHNGP
kpts =  (8,8,8)

  ___ ___ ___ _ _ _  
 |   |   |_  | | | | 
 | | | | | . | | | | 
 |__ |  _|___|_____|  1.3.1b1
 |___|_|             

User:   inukai@DESKTOP-12SE80T
Date:   Tue Feb  2 19:11:38 2021
Arch:   x86_64
Pid:    32576
Python: 3.6.9
gpaw:   /usr/lib/python3/dist-packages/gpaw
_gpaw:  /usr/lib/python3/dist-packages/_gpaw.cpython-36m-x86_64-linux-gnu.so
ase:    /home/inukai/hotcent/ase-3.19.3/ase (version 3.19.3)
numpy:  /home/inukai/.local/lib/python3.6/site-packages/numpy (version 1.19.5)
scipy:  /home/inukai/.local/lib/python3.6/site-packages/scipy (version 1.5.4)
units:  Angstrom and eV
cores:  1

Input parameters:
  kpts: [8 8 8]
  maxiter: 200
  mixer: {backend: pulay,
          beta: 0.05,
          method: separate,
          nmaxold: 8,
          weight: 100}
  mode: {ecut: 400.0,
         name: pw}
  occupations: {name: fermi-dirac,
                width: 0.02}
  spinpol: False
  xc: PBE

System changes: positions, numbers, cell, pbc, initial_charges, initial_magmoms 

Initialize ...

Na-setup:
  name: Sodium
  id: d7ecbc49209718622bcbe287195dca2a
  Z: 11
  valence: 7
  core: 4
  charge: 0.0
  file: /usr/share/gpaw-setups/Na.PBE.gz
  cutoffs: 1.18(comp), 2.17(filt), 2.59(core), lmax=2
  valence states:
                energy  radius
    3s(1.00)    -2.744   1.201
    2p(6.00)   -28.672   1.217
    3p(0.00)    -0.743   1.217
    *s          24.468   1.201
    *d           0.000   1.238

  Using partial waves for Na as LCAO basis

Reference energy: -4418.610498

Spin-paired calculation

Occupation numbers:
  Fermi-Dirac: width=0.0200 eV

Convergence criteria:
  Maximum total energy change: 0.0005 eV / electron
  Maximum integral of absolute density change: 0.0001 electrons
  Maximum integral of absolute eigenstate change: 4e-08 eV^2
  Maximum number of iterations: 200

Symmetries present (total): 48

  ( 1  1  1)  ( 1  1  1)  ( 1  1  1)  ( 1  1  1)  ( 1  1  1)  ( 1  1  1)
  ( 0  0 -1)  ( 0  0 -1)  ( 0 -1  0)  ( 0 -1  0)  (-1  0  0)  (-1  0  0)
  ( 0 -1  0)  (-1  0  0)  ( 0  0 -1)  (-1  0  0)  ( 0  0 -1)  ( 0 -1  0)

  ( 1  0  0)  ( 1  0  0)  ( 1  0  0)  ( 1  0  0)  ( 1  0  0)  ( 1  0  0)
  ( 0  1  0)  ( 0  1  0)  ( 0  0  1)  ( 0  0  1)  (-1 -1 -1)  (-1 -1 -1)
  ( 0  0  1)  (-1 -1 -1)  ( 0  1  0)  (-1 -1 -1)  ( 0  1  0)  ( 0  0  1)

  ( 0  1  0)  ( 0  1  0)  ( 0  1  0)  ( 0  1  0)  ( 0  1  0)  ( 0  1  0)
  ( 1  0  0)  ( 1  0  0)  ( 0  0  1)  ( 0  0  1)  (-1 -1 -1)  (-1 -1 -1)
  ( 0  0  1)  (-1 -1 -1)  ( 1  0  0)  (-1 -1 -1)  ( 1  0  0)  ( 0  0  1)

  ( 0  0  1)  ( 0  0  1)  ( 0  0  1)  ( 0  0  1)  ( 0  0  1)  ( 0  0  1)
  ( 1  0  0)  ( 1  0  0)  ( 0  1  0)  ( 0  1  0)  (-1 -1 -1)  (-1 -1 -1)
  ( 0  1  0)  (-1 -1 -1)  ( 1  0  0)  (-1 -1 -1)  ( 1  0  0)  ( 0  1  0)

  ( 0  0 -1)  ( 0  0 -1)  ( 0  0 -1)  ( 0  0 -1)  ( 0  0 -1)  ( 0  0 -1)
  ( 1  1  1)  ( 1  1  1)  ( 0 -1  0)  ( 0 -1  0)  (-1  0  0)  (-1  0  0)
  ( 0 -1  0)  (-1  0  0)  ( 1  1  1)  (-1  0  0)  ( 1  1  1)  ( 0 -1  0)

  ( 0 -1  0)  ( 0 -1  0)  ( 0 -1  0)  ( 0 -1  0)  ( 0 -1  0)  ( 0 -1  0)
  ( 1  1  1)  ( 1  1  1)  ( 0  0 -1)  ( 0  0 -1)  (-1  0  0)  (-1  0  0)
  ( 0  0 -1)  (-1  0  0)  ( 1  1  1)  (-1  0  0)  ( 1  1  1)  ( 0  0 -1)

  (-1  0  0)  (-1  0  0)  (-1  0  0)  (-1  0  0)  (-1  0  0)  (-1  0  0)
  ( 1  1  1)  ( 1  1  1)  ( 0  0 -1)  ( 0  0 -1)  ( 0 -1  0)  ( 0 -1  0)
  ( 0  0 -1)  ( 0 -1  0)  ( 1  1  1)  ( 0 -1  0)  ( 1  1  1)  ( 0  0 -1)

  (-1 -1 -1)  (-1 -1 -1)  (-1 -1 -1)  (-1 -1 -1)  (-1 -1 -1)  (-1 -1 -1)
  ( 1  0  0)  ( 1  0  0)  ( 0  1  0)  ( 0  1  0)  ( 0  0  1)  ( 0  0  1)
  ( 0  1  0)  ( 0  0  1)  ( 1  0  0)  ( 0  0  1)  ( 1  0  0)  ( 0  1  0)

512 k-points: 8 x 8 x 8 Monkhorst-Pack grid
26 k-points in the irreducible part of the Brillouin zone
       k-points in crystal coordinates                weights
   0:     0.06250000    0.06250000   -0.06250000          6/512
   1:     0.18750000   -0.06250000   -0.06250000          8/512
   2:     0.18750000    0.06250000   -0.06250000         24/512
   3:     0.18750000    0.18750000   -0.18750000          6/512
   4:     0.31250000   -0.06250000   -0.06250000         24/512
   5:     0.31250000    0.06250000   -0.18750000         24/512
   6:     0.31250000    0.06250000   -0.06250000         24/512
   7:     0.31250000    0.18750000   -0.18750000         24/512
   8:     0.31250000    0.31250000   -0.31250000          6/512
   9:     0.31250000    0.31250000    0.18750000         12/512
          ...
  25:     0.43750000    0.43750000    0.43750000          8/512

Wave functions: Plane wave expansion
  Cutoff energy: 400.000 eV
  Number of coefficients (min, max): 674, 702
  Using FFTW library
  Eigensolver: None  MatrixOperator buffer_size: default value or 
                              see value of nblock in input file
Diagonalizer layout: Serial LAPACKOrthonormalizer layout: Serial LAPACK 

Davidson(niter=1, smin=None, normalize=True) 

Densities:
  Coarse grid: 14*14*14 grid
  Fine grid: 28*28*28 grid
  Total Charge: 0.000000 

Density mixing:
  Method: separate
  Backend: pulay
  Linear mixing parameter: 0.05
  Mixing with 8 old densities
  Damping of long wave oscillations: 100 

Hamiltonian:
  XC and Coulomb potentials evaluated on a 28*28*28 grid
  Using the PBE Exchange-Correlation functional
 

Memory estimate:
  Process memory now: 922.77 MiB
  Calculator: 6.07 MiB
    Density: 1.29 MiB
      Arrays: 0.54 MiB
      Localized functions: 0.41 MiB
      Mixer: 0.33 MiB
    Hamiltonian: 0.36 MiB
      Arrays: 0.36 MiB
      XC: 0.00 MiB
      Poisson: 0.00 MiB
      vbar: 0.01 MiB
    Wavefunctions: 4.42 MiB
      Arrays psit_nG: 1.95 MiB
      Eigensolver: 0.14 MiB
      Projections: 0.04 MiB
      Projectors: 1.91 MiB
      Overlap op: 0.08 MiB
      PW-descriptor: 0.31 MiB

Total number of cores used: 1

Number of atoms: 1
Number of atomic orbitals: 7
Number of bands in calculation: 7
Bands to converge: occupied states only
Number of valence electrons: 7

... initialized

Initializing position-dependent things.

Density initialized from atomic densities
Creating initial wave functions:
  7 bands from LCAO basis set

                
                
                
       Na       
                
                
                
                

Positions:
   0 Na     0.000000    0.000000    0.000000

Unit cell:
           periodic     x           y           z      points  spacing
  1. axis:    yes   -2.115000    2.115000    2.115000    14     0.2136
  2. axis:    yes    2.115000   -2.115000    2.115000    14     0.2136
  3. axis:    yes    2.115000    2.115000   -2.115000    14     0.2136

  Lengths:   3.663287   3.663287   3.663287
  Angles:  109.471221 109.471221 109.471221

Effective grid spacing dv^(1/3) = 0.2398

                     log10-error:    total        iterations:
           time      wfs    density  energy       fermi  poisson
iter:   1  19:11:40  +2.09   +inf    -1.313285    3             
iter:   2  19:11:40  -0.67   +inf    -1.318380    3             
iter:   3  19:11:41  -1.23   +inf    -1.319660    2             
iter:   4  19:11:41  -1.71  -1.69    -1.319076    3             
iter:   5  19:11:42  -0.87  -1.71    -1.317427    29            
iter:   6  19:11:42  -2.25  -2.57    -1.315990    3             
iter:   7  19:11:43  -2.37  -2.74    -1.314921    3             
iter:   8  19:11:43  -2.28  -3.06    -1.314654    3             
iter:   9  19:11:44  -3.51  -3.51    -1.314625    3             
iter:  10  19:11:44  -3.20  -3.87    -1.314660    3             
iter:  11  19:11:45  -3.43  -3.51    -1.314624    3             
iter:  12  19:11:46  -4.86  -4.86    -1.314625    2             
iter:  13  19:11:46  -5.89  -4.69    -1.314625    1             
iter:  14  19:11:47  -6.39  -4.69    -1.314625    2             
iter:  15  19:11:47  -6.90  -4.93    -1.314625    2             
iter:  16  19:11:48  -7.31  -5.00    -1.314625    2             
iter:  17  19:11:48  -8.07  -5.09    -1.314625    1             

Converged after 17 iterations.

Dipole moment: (-0.000000, 0.000000, -0.000000) |e|*Ang

Energy contributions relative to reference atoms: (reference = -4418.610498)

Kinetic:         +1.315369
Potential:       -1.165016
External:        +0.000000
XC:              -1.432837
Entropy (-ST):   -0.001488
Local:           -0.031397
--------------------------
Free energy:     -1.315369
Extrapolated:    -1.314625

Fermi level: 0.28392

Warning: Showing only first 2 kpts
 Kpt  Band  Eigenvalues  Occupancy
  0     1    -24.71676    0.02344
  0     2    -24.71654    0.02344
  0     3     -2.88078    0.02344
  0     4     10.67821    0.00000

  1     1    -24.71695    0.03125
  1     2    -24.71657    0.03125
  1     3     -2.61043    0.03125
  1     4      9.15233    0.00000


Input parameters:
  convergence: {bands: all}
  eigensolver: {name: cg,
                niter: 5}
  fixdensity: True
  kpts: {npoints: 50,
         path: GHNGP}
  nbands: -4
  symmetry: off

Initialize ...

Na-setup:
  name: Sodium
  id: d7ecbc49209718622bcbe287195dca2a
  Z: 11
  valence: 7
  core: 4
  charge: 0.0
  file: /usr/share/gpaw-setups/Na.PBE.gz
  cutoffs: 1.18(comp), 2.17(filt), 2.59(core), lmax=2
  valence states:
                energy  radius
    3s(1.00)    -2.744   1.201
    2p(6.00)   -28.672   1.217
    3p(0.00)    -0.743   1.217
    *s          24.468   1.201
    *d           0.000   1.238

  Using partial waves for Na as LCAO basis

Reference energy: -4418.610498

Spin-paired calculation

Occupation numbers:
  Fixed Fermi level
  Fermi-Dirac: width=0.0200 eV

Convergence criteria:
  Maximum total energy change: 0.0005 eV / electron
  Maximum integral of absolute density change: 0.0001 electrons
  Maximum integral of absolute eigenstate change: 4e-08 eV^2
  Maximum number of iterations: 200

Symmetries present (total): 1

  ( 1  0  0)
  ( 0  1  0)
  ( 0  0  1)

50 k-points
50 k-points in the irreducible part of the Brillouin zone
       k-points in crystal coordinates                weights
   0:     0.00000000    0.00000000    0.00000000          1/50
   1:     0.03571429   -0.03571429    0.03571429          1/50
   2:     0.07142857   -0.07142857    0.07142857          1/50
   3:     0.10714286   -0.10714286    0.10714286          1/50
   4:     0.14285714   -0.14285714    0.14285714          1/50
   5:     0.17857143   -0.17857143    0.17857143          1/50
   6:     0.21428571   -0.21428571    0.21428571          1/50
   7:     0.25000000   -0.25000000    0.25000000          1/50
   8:     0.28571429   -0.28571429    0.28571429          1/50
   9:     0.32142857   -0.32142857    0.32142857          1/50
          ...
  49:     0.25000000    0.25000000    0.25000000          1/50

Wave functions: Plane wave expansion
  Cutoff energy: 400.000 eV
  Number of coefficients (min, max): 671, 703
  Using FFTW library
  Eigensolver: None  MatrixOperator buffer_size: default value or 
                              see value of nblock in input file
Diagonalizer layout: Serial LAPACKOrthonormalizer layout: Serial LAPACK 

CG(niter=5, rtol=3.0e-01) 

No density mixing

Memory estimate:
  Process memory now: 976.27 MiB
  Calculator: 9.83 MiB
    Density: 1.29 MiB
      Arrays: 0.54 MiB
      Localized functions: 0.41 MiB
      Mixer: 0.33 MiB
    Hamiltonian: 0.36 MiB
      Arrays: 0.36 MiB
      XC: 0.00 MiB
      Poisson: 0.00 MiB
      vbar: 0.01 MiB
    Wavefunctions: 8.18 MiB
      Arrays psit_nG: 3.75 MiB
      Eigensolver: 0.13 MiB
      Projections: 0.07 MiB
      Projectors: 3.65 MiB
      Overlap op: 0.08 MiB
      PW-descriptor: 0.50 MiB

Total number of cores used: 1

Number of atoms: 1
Number of atomic orbitals: 7
Number of bands in calculation: 7
Bands to converge: all
Number of valence electrons: 7

... initialized

Initializing position-dependent things.

Creating initial wave functions:
  7 bands from LCAO basis set

                
                
                
       Na       
                
                
                
                

Positions:
   0 Na     0.000000    0.000000    0.000000

Unit cell:
           periodic     x           y           z      points  spacing
  1. axis:    yes   -2.115000    2.115000    2.115000    14     0.2136
  2. axis:    yes    2.115000   -2.115000    2.115000    14     0.2136
  3. axis:    yes    2.115000    2.115000   -2.115000    14     0.2136

  Lengths:   3.663287   3.663287   3.663287
  Angles:  109.471221 109.471221 109.471221

Effective grid spacing dv^(1/3) = 0.2398

                     log10-error:    total        iterations:
           time      wfs    density  energy       fermi  poisson
iter:   1  19:11:51  +2.20           -2.451437    17            
iter:   2  19:11:52  +1.37           -2.456218    21            
iter:   3  19:11:54  +0.65           -2.457292    21            
iter:   4  19:11:56  -0.05           -2.457335    21            
iter:   5  19:11:58  +0.33           -2.457341    20            
iter:   6  19:11:59  -1.00           -2.457342    20            
iter:   7  19:12:01  -0.28           -2.457342    20            
iter:   8  19:12:03  -0.46           -2.457342    20            
iter:   9  19:12:04  -0.76           -2.457342    20            
iter:  10  19:12:05  -1.83           -2.457342    20            
iter:  11  19:12:05  -0.79           -2.457342    20            
iter:  12  19:12:06  -1.10           -2.457342    20            
iter:  13  19:12:07  -1.25           -2.457342    20            
iter:  14  19:12:07  -1.72           -2.457342    20            
iter:  15  19:12:08  -2.43           -2.457342    20            
iter:  16  19:12:08  -4.36           -2.457342    20            
iter:  17  19:12:09  -5.50           -2.457342    20            
iter:  18  19:12:09  -5.54           -2.457342    20            
iter:  19  19:12:09  -6.13           -2.457342    20            
iter:  20  19:12:10  -1.80           -2.457342    20            
iter:  21  19:12:10  -2.45           -2.457342    20            
iter:  22  19:12:11  -3.76           -2.457342    20            
iter:  23  19:12:11  -4.84           -2.457342    20            
iter:  24  19:12:11  -5.34           -2.457342    20            
iter:  25  19:12:12  -6.66           -2.457342    20            
iter:  26  19:12:12  -7.78           -2.457342    20            

Converged after 26 iterations.

Dipole moment: (-0.000000, 0.000000, -0.000000) |e|*Ang

Energy contributions relative to reference atoms: (reference = -4418.610498)

Kinetic:         +0.171889
Potential:       -1.165007
External:        +0.000000
XC:              -1.432822
Entropy (-ST):   -0.000001
Local:           -0.031401
--------------------------
Free energy:     -2.457343
Extrapolated:    -2.457342

Fixed Fermi level: 0.28392

Warning: Showing only first 2 kpts
 Kpt  Band  Eigenvalues  Occupancy
  0     1    -24.71569    0.04000
  0     2    -24.71569    0.04000
  0     3     -3.01649    0.04000
  0     4     13.35440    0.00000

  1     1    -24.71610    0.04000
  1     2    -24.71597    0.04000
  1     3     -2.97214    0.04000
  1     4     11.31437    0.00000


Timing:                              incl.     excl.
-----------------------------------------------------------
Hamiltonian:                         0.380     0.001   0.0% |
 Atomic:                             0.282     0.003   0.0% |
  XC Correction:                     0.279     0.279   0.8% |
 Calculate atomic Hamiltonians:      0.009     0.009   0.0% |
 Communicate:                        0.000     0.000   0.0% |
 Initialize Hamiltonian:             0.000     0.000   0.0% |
 Poisson:                            0.000     0.000   0.0% |
 XC 3D grid:                         0.086     0.086   0.2% |
LCAO initialization:                 1.314     0.199   0.6% |
 LCAO eigensolver:                   0.478     0.007   0.0% |
  Calculate projections:             0.002     0.002   0.0% |
  DenseAtomicCorrection:             0.012     0.012   0.0% |
  Distribute overlap matrix:         0.003     0.003   0.0% |
  Orbital Layouts:                   0.022     0.022   0.1% |
  Potential matrix:                  0.041     0.041   0.1% |
  Sum over cells:                    0.391     0.391   1.1% |
 LCAO to grid:                       0.293     0.293   0.8% |
 Set positions (LCAO WFS):           0.343     0.001   0.0% |
  Basic WFS set positions:           0.005     0.005   0.0% |
  Basis functions set positions:     0.000     0.000   0.0% |
  TCI: Calculate S, T, P:            0.337     0.337   1.0% |
PWDescriptor:                        0.022     0.022   0.1% |
Redistribute:                        0.000     0.000   0.0% |
SCF-cycle:                          31.005     5.515  15.7% |-----|
 CG:                                13.244    11.748  33.5% |------------|
  CG: orthonormalize:                1.496     0.878   2.5% ||
   CG: overlap:                      0.404     0.404   1.2% |
   CG: overlap2:                     0.214     0.214   0.6% |
 Davidson:                           3.448     1.978   5.6% |-|
  calc. matrices:                    0.965     0.965   2.7% ||
  diagonalize:                       0.351     0.351   1.0% |
  rotate_psi:                        0.154     0.154   0.4% |
 Density:                            1.060     0.001   0.0% |
  Atomic density matrices:           0.047     0.047   0.1% |
  Mix:                               0.090     0.090   0.3% |
  Multipole moments:                 0.003     0.003   0.0% |
  Pseudo density:                    0.918     0.638   1.8% ||
   Symmetrize density:               0.280     0.280   0.8% |
 Hamiltonian:                        2.290     0.009   0.0% |
  Atomic:                            1.714     0.018   0.1% |
   XC Correction:                    1.695     1.695   4.8% |-|
  Calculate atomic Hamiltonians:     0.058     0.058   0.2% |
  Communicate:                       0.000     0.000   0.0% |
  Poisson:                           0.004     0.004   0.0% |
  XC 3D grid:                        0.505     0.505   1.4% ||
 Orthonormalize:                     0.090     0.006   0.0% |
  Band Layouts:                      0.004     0.001   0.0% |
   Inverse Cholesky:                 0.003     0.003   0.0% |
  calc_s_matrix:                     0.014     0.014   0.0% |
  projections:                       0.053     0.053   0.2% |
  rotate_psi:                        0.013     0.013   0.0% |
 Residuals:                          1.195     1.195   3.4% ||
 Subspace diag:                      4.163     0.218   0.6% |
  Band Layouts:                      0.392     0.063   0.2% |
   Diagonalize:                      0.286     0.286   0.8% |
   Distribute results:               0.043     0.043   0.1% |
  calc_h_matrix:                     3.025     3.025   8.6% |--|
  rotate_psi:                        0.528     0.528   1.5% ||
Set symmetry:                        0.111     0.111   0.3% |
Other:                               2.256     2.256   6.4% |--|
-----------------------------------------------------------
Total:                                        35.088 100.0%

Date: Tue Feb  2 19:12:13 2021
element =  Na
struct =  bcc
kpts =  (8,8,8)
element =  Na
configuration =  [Ne] 3s1 3p0
valence =  ['3s', '3p']
occupations =  {'2s': 1, '3p': 0}
nls =  3s
rNum =  600
lmax =  p
*******************************************
Starting confinement parameter optimization
Adjustable parameters and initial values:
  Na_3p.r0 : 6.273891
  Na_3s.r0 : 6.273891
  Na_n.r0 : 9.410836
*******************************************

OPT_VAL: 6.2738907377786015   6.2738907377786015   9.410836106667903
VCONF:
  Na_3p : PowerConfinement(r0=6.273891, s=2.000000)
  Na_3s : PowerConfinement(r0=6.273891, s=2.000000)
  Na_n : PowerConfinement(r0=9.410836, s=2.000000)
RESIDUAL: 0.0

OPT_VAL: 6.473890737778602   6.2738907377786015   9.410836106667903
VCONF:
  Na_3p : PowerConfinement(r0=6.473891, s=2.000000)
  Na_3s : PowerConfinement(r0=6.273891, s=2.000000)
  Na_n : PowerConfinement(r0=9.410836, s=2.000000)
RESIDUAL: 0.0

OPT_VAL: 6.2738907377786015   6.473890737778602   9.410836106667903
VCONF:
  Na_3p : PowerConfinement(r0=6.273891, s=2.000000)
  Na_3s : PowerConfinement(r0=6.473891, s=2.000000)
  Na_n : PowerConfinement(r0=9.410836, s=2.000000)
RESIDUAL: 0.0

OPT_VAL: 6.2738907377786015   6.2738907377786015   9.610836106667902
VCONF:
  Na_3p : PowerConfinement(r0=6.273891, s=2.000000)
  Na_3s : PowerConfinement(r0=6.273891, s=2.000000)
  Na_n : PowerConfinement(r0=9.610836, s=2.000000)
RESIDUAL: 0.0

OPT_VAL: 6.298890737778602   6.2738907377786015   9.410836106667903
VCONF:
  Na_3p : PowerConfinement(r0=6.298891, s=2.000000)
  Na_3s : PowerConfinement(r0=6.273891, s=2.000000)
  Na_n : PowerConfinement(r0=9.410836, s=2.000000)
RESIDUAL: 0.0

OPT_VAL: 6.2738907377786015   6.298890737778602   9.410836106667903
VCONF:
  Na_3p : PowerConfinement(r0=6.273891, s=2.000000)
  Na_3s : PowerConfinement(r0=6.298891, s=2.000000)
  Na_n : PowerConfinement(r0=9.410836, s=2.000000)
RESIDUAL: 0.0

OPT_VAL: 6.2738907377786015   6.2738907377786015   9.435836106667903
VCONF:
  Na_3p : PowerConfinement(r0=6.273891, s=2.000000)
  Na_3s : PowerConfinement(r0=6.273891, s=2.000000)
  Na_n : PowerConfinement(r0=9.435836, s=2.000000)
RESIDUAL: 0.0

OPT_VAL: 6.278890737778601   6.2738907377786015   9.410836106667903
VCONF:
  Na_3p : PowerConfinement(r0=6.278891, s=2.000000)
  Na_3s : PowerConfinement(r0=6.273891, s=2.000000)
  Na_n : PowerConfinement(r0=9.410836, s=2.000000)
RESIDUAL: 0.0

OPT_VAL: 6.2738907377786015   6.278890737778601   9.410836106667903
VCONF:
  Na_3p : PowerConfinement(r0=6.273891, s=2.000000)
  Na_3s : PowerConfinement(r0=6.278891, s=2.000000)
  Na_n : PowerConfinement(r0=9.410836, s=2.000000)
RESIDUAL: 0.0

OPT_VAL: 6.2738907377786015   6.2738907377786015   9.415836106667903
VCONF:
  Na_3p : PowerConfinement(r0=6.273891, s=2.000000)
  Na_3s : PowerConfinement(r0=6.273891, s=2.000000)
  Na_n : PowerConfinement(r0=9.415836, s=2.000000)
RESIDUAL: 0.0

*******************************************
Optimization finished after 10 iterations
Adjustable parameters and final values:
  Na_3p.r0 : 6.273891
  Na_3s.r0 : 6.273891
  Na_n.r0 : 9.410836
*******************************************

VCONF:
  Na_3p : PowerConfinement(r0=6.273891, s=2.000000)
  Na_3s : PowerConfinement(r0=6.273891, s=2.000000)
  Na_n : PowerConfinement(r0=9.410836, s=2.000000)
