element =  Br
struct =  bcc
nbands =  -4
path =  GHNGP
kpts =  (8,8,8)
lattice constant a =  3.765
lattice constant b =  3.765
lattice constant c =  3.765
alpha angle =  90.0

  ___ ___ ___ _ _ _  
 |   |   |_  | | | | 
 | | | | | . | | | | 
 |__ |  _|___|_____|  1.3.1b1
 |___|_|             

User:   inukai@DESKTOP-12SE80T
Date:   Thu Feb 11 20:46:22 2021
Arch:   x86_64
Pid:    14348
Python: 3.6.9
gpaw:   /usr/lib/python3/dist-packages/gpaw
_gpaw:  /usr/lib/python3/dist-packages/_gpaw.cpython-36m-x86_64-linux-gnu.so
ase:    /home/inukai/hotcent/ase-3.19.3/ase (version 3.19.3)
numpy:  /home/inukai/.local/lib/python3.6/site-packages/numpy (version 1.19.5)
scipy:  /home/inukai/.local/lib/python3.6/site-packages/scipy (version 1.5.4)
units:  Angstrom and eV
cores:  1

Input parameters:
  kpts: [8 8 8]
  maxiter: 1500
  mixer: {backend: pulay,
          beta: 0.01,
          method: separate,
          nmaxold: 11,
          weight: 100.0}
  mode: {ecut: 400.0,
         name: pw}
  occupations: {name: fermi-dirac,
                width: 0.02}
  spinpol: True
  xc: PBE

System changes: positions, numbers, cell, pbc, initial_charges, initial_magmoms 

Initialize ...

Br-setup:
  name: Bromine
  id: 39dc90fcf3bf77f2d83386b416c2c495
  Z: 35
  valence: 7
  core: 28
  charge: 0.0
  file: /usr/share/gpaw-setups/Br.PBE.gz
  cutoffs: 1.11(comp), 1.98(filt), 2.38(core), lmax=2
  valence states:
                energy  radius
    4s(2.00)   -20.121   1.111
    4p(5.00)    -7.861   1.111
    *s           7.091   1.111
    *p          19.351   1.111
    *d           0.000   1.111

  Using partial waves for Br as LCAO basis

Reference energy: -70902.247729

Spin-polarized calculation.
Magnetic moment:  0.000000

Occupation numbers:
  Fermi-Dirac: width=0.0200 eV

Convergence criteria:
  Maximum total energy change: 0.0005 eV / electron
  Maximum integral of absolute density change: 0.0001 electrons
  Maximum integral of absolute eigenstate change: 4e-08 eV^2
  Maximum number of iterations: 1500

Symmetries present (total): 48

  ( 1  1  1)  ( 1  1  1)  ( 1  1  1)  ( 1  1  1)  ( 1  1  1)  ( 1  1  1)
  ( 0  0 -1)  ( 0  0 -1)  ( 0 -1  0)  ( 0 -1  0)  (-1  0  0)  (-1  0  0)
  ( 0 -1  0)  (-1  0  0)  ( 0  0 -1)  (-1  0  0)  ( 0  0 -1)  ( 0 -1  0)

  ( 1  0  0)  ( 1  0  0)  ( 1  0  0)  ( 1  0  0)  ( 1  0  0)  ( 1  0  0)
  ( 0  1  0)  ( 0  1  0)  ( 0  0  1)  ( 0  0  1)  (-1 -1 -1)  (-1 -1 -1)
  ( 0  0  1)  (-1 -1 -1)  ( 0  1  0)  (-1 -1 -1)  ( 0  1  0)  ( 0  0  1)

  ( 0  1  0)  ( 0  1  0)  ( 0  1  0)  ( 0  1  0)  ( 0  1  0)  ( 0  1  0)
  ( 1  0  0)  ( 1  0  0)  ( 0  0  1)  ( 0  0  1)  (-1 -1 -1)  (-1 -1 -1)
  ( 0  0  1)  (-1 -1 -1)  ( 1  0  0)  (-1 -1 -1)  ( 1  0  0)  ( 0  0  1)

  ( 0  0  1)  ( 0  0  1)  ( 0  0  1)  ( 0  0  1)  ( 0  0  1)  ( 0  0  1)
  ( 1  0  0)  ( 1  0  0)  ( 0  1  0)  ( 0  1  0)  (-1 -1 -1)  (-1 -1 -1)
  ( 0  1  0)  (-1 -1 -1)  ( 1  0  0)  (-1 -1 -1)  ( 1  0  0)  ( 0  1  0)

  ( 0  0 -1)  ( 0  0 -1)  ( 0  0 -1)  ( 0  0 -1)  ( 0  0 -1)  ( 0  0 -1)
  ( 1  1  1)  ( 1  1  1)  ( 0 -1  0)  ( 0 -1  0)  (-1  0  0)  (-1  0  0)
  ( 0 -1  0)  (-1  0  0)  ( 1  1  1)  (-1  0  0)  ( 1  1  1)  ( 0 -1  0)

  ( 0 -1  0)  ( 0 -1  0)  ( 0 -1  0)  ( 0 -1  0)  ( 0 -1  0)  ( 0 -1  0)
  ( 1  1  1)  ( 1  1  1)  ( 0  0 -1)  ( 0  0 -1)  (-1  0  0)  (-1  0  0)
  ( 0  0 -1)  (-1  0  0)  ( 1  1  1)  (-1  0  0)  ( 1  1  1)  ( 0  0 -1)

  (-1  0  0)  (-1  0  0)  (-1  0  0)  (-1  0  0)  (-1  0  0)  (-1  0  0)
  ( 1  1  1)  ( 1  1  1)  ( 0  0 -1)  ( 0  0 -1)  ( 0 -1  0)  ( 0 -1  0)
  ( 0  0 -1)  ( 0 -1  0)  ( 1  1  1)  ( 0 -1  0)  ( 1  1  1)  ( 0  0 -1)

  (-1 -1 -1)  (-1 -1 -1)  (-1 -1 -1)  (-1 -1 -1)  (-1 -1 -1)  (-1 -1 -1)
  ( 1  0  0)  ( 1  0  0)  ( 0  1  0)  ( 0  1  0)  ( 0  0  1)  ( 0  0  1)
  ( 0  1  0)  ( 0  0  1)  ( 1  0  0)  ( 0  0  1)  ( 1  0  0)  ( 0  1  0)

512 k-points: 8 x 8 x 8 Monkhorst-Pack grid
26 k-points in the irreducible part of the Brillouin zone
       k-points in crystal coordinates                weights
   0:     0.06250000    0.06250000   -0.06250000          6/512
   1:     0.18750000   -0.06250000   -0.06250000          8/512
   2:     0.18750000    0.06250000   -0.06250000         24/512
   3:     0.18750000    0.18750000   -0.18750000          6/512
   4:     0.31250000   -0.06250000   -0.06250000         24/512
   5:     0.31250000    0.06250000   -0.18750000         24/512
   6:     0.31250000    0.06250000   -0.06250000         24/512
   7:     0.31250000    0.18750000   -0.18750000         24/512
   8:     0.31250000    0.31250000   -0.31250000          6/512
   9:     0.31250000    0.31250000    0.18750000         12/512
          ...
  25:     0.43750000    0.43750000    0.43750000          8/512

Wave functions: Plane wave expansion
  Cutoff energy: 400.000 eV
  Number of coefficients (min, max): 478, 496
  Using FFTW library
  Eigensolver: None  MatrixOperator buffer_size: default value or 
                              see value of nblock in input file
Diagonalizer layout: Serial LAPACKOrthonormalizer layout: Serial LAPACK 

Davidson(niter=1, smin=None, normalize=True) 

Densities:
  Coarse grid: 12*12*12 grid
  Fine grid: 24*24*24 grid
  Total Charge: 0.000000 

Density mixing:
  Method: separate
  Backend: pulay
  Linear mixing parameter: 0.01
  Mixing with 11 old densities
  Damping of long wave oscillations: 100 

Hamiltonian:
  XC and Coulomb potentials evaluated on a 24*24*24 grid
  Using the PBE Exchange-Correlation functional
 

Memory estimate:
  Process memory now: 926.96 MiB
  Calculator: 4.92 MiB
    Density: 1.30 MiB
      Arrays: 0.46 MiB
      Localized functions: 0.26 MiB
      Mixer: 0.58 MiB
    Hamiltonian: 0.35 MiB
      Arrays: 0.34 MiB
      XC: 0.00 MiB
      Poisson: 0.00 MiB
      vbar: 0.01 MiB
    Wavefunctions: 3.27 MiB
      Arrays psit_nG: 1.57 MiB
      Eigensolver: 0.07 MiB
      Projections: 0.04 MiB
      Projectors: 1.35 MiB
      Overlap op: 0.03 MiB
      PW-descriptor: 0.21 MiB

Total number of cores used: 1

Number of atoms: 1
Number of atomic orbitals: 4
Number of bands in calculation: 4
Bands to converge: occupied states only
Number of valence electrons: 7

... initialized

Initializing position-dependent things.

Density initialized from atomic densities
Creating initial wave functions:
  4 bands from LCAO basis set

                
                
                
       Br       
                
                
                
                

Positions:
   0 Br     0.000000    0.000000    0.000000

Unit cell:
           periodic     x           y           z      points  spacing
  1. axis:    yes   -1.882500    1.882500    1.882500    12     0.2219
  2. axis:    yes    1.882500   -1.882500    1.882500    12     0.2219
  3. axis:    yes    1.882500    1.882500   -1.882500    12     0.2219

  Lengths:   3.260586   3.260586   3.260586
  Angles:  109.471221 109.471221 109.471221

Effective grid spacing dv^(1/3) = 0.2490

                     log10-error:    total        iterations:
           time      wfs    density  energy       fermi  poisson  magmom
iter:   1  20:46:24  -0.09   +inf    -0.953854    3               -0.0000
iter:   2  20:46:25  -0.83   +inf    -0.973978    3               +0.0000
iter:   3  20:46:25  -1.96   +inf    -0.976515    2               -0.0000
iter:   4  20:46:26  -2.60  -1.93    -0.976933    2               +0.0000
iter:   5  20:46:26  -3.52  -1.93    -0.977009    2               -0.0000
iter:   6  20:46:27  -3.82  -1.92    -0.976964    3               +0.0000
iter:   7  20:46:28  -2.16  -1.98    -0.977850    5               -0.0000
iter:   8  20:46:29  -3.25  -2.34    -0.977698    3               -0.0000
iter:   9  20:46:29  -4.22  -2.44    -0.977756    3               -0.0000
iter:  10  20:46:30  -4.72  -2.39    -0.977821    3               -0.0000
iter:  11  20:46:31  -3.45  -2.34    -0.978121    3               +0.0000
iter:  12  20:46:31  -4.48  -2.13    -0.978139    3               +0.0000
iter:  13  20:46:32  -4.34  -2.09    -0.978025    3               -0.0000
iter:  14  20:46:33  -4.41  -2.16    -0.978116    3               +0.0015
iter:  15  20:46:33  -4.68  -2.10    -0.978174    3               -0.0003
iter:  16  20:46:34  -3.06  -2.06    -0.977656    4               +0.0004
iter:  17  20:46:35  -3.97  -2.41    -0.977630    3               +0.0017
iter:  18  20:46:36  -4.67  -2.44    -0.977602    2               +0.0041
iter:  19  20:46:36  -4.07  -2.46    -0.977473    3               +0.0010
iter:  20  20:46:37  -3.54  -2.55    -0.977041    3               +0.0074
iter:  21  20:46:38  -3.18  -2.43    -0.977581    3               +0.0047
iter:  22  20:46:38  -3.27  -2.51    -0.977024    3               +0.0037
iter:  23  20:46:39  -3.46  -2.40    -0.977297    3               -0.0044
iter:  24  20:46:40  -4.04  -2.48    -0.977409    3               +0.0004
iter:  25  20:46:40  -4.66  -2.45    -0.977479    3               -0.0006
iter:  26  20:46:41  -4.49  -2.49    -0.977555    2               -0.0002
iter:  27  20:46:42  -2.91  -2.49    -0.976651    3               -0.0037
iter:  28  20:46:43  -3.01  -2.14    -0.977550    3               +0.0002
iter:  29  20:46:43  -3.76  -2.54    -0.977705    3               -0.0047
iter:  30  20:46:44  -3.13  -2.36    -0.976891    3               +0.0168
iter:  31  20:46:45  -4.25  -2.35    -0.976875    3               +0.0194
iter:  32  20:46:45  -3.98  -2.32    -0.977217    3               +0.0218
iter:  33  20:46:46  -2.70  -2.33    -0.978482    3               +0.0191
iter:  34  20:46:47  -3.08  -2.09    -0.977926    3               +0.0233
iter:  35  20:46:48  -3.22  -2.19    -0.977118    2               +0.0207
iter:  36  20:46:48  -3.17  -2.18    -0.978072    3               +0.0066
iter:  37  20:46:49  -4.07  -2.20    -0.978104    2               +0.0200
iter:  38  20:46:50  -4.03  -2.21    -0.978375    3               +0.0082
iter:  39  20:46:50  -3.70  -2.17    -0.977856    2               +0.0073
iter:  40  20:46:51  -3.28  -2.13    -0.978632    3               +0.0066
iter:  41  20:46:52  -4.06  -2.20    -0.978685    2               +0.0289
iter:  42  20:46:52  -3.31  -2.19    -0.978633    3               -0.0083
iter:  43  20:46:53  -3.95  -2.01    -0.978250    3               -0.0109
iter:  44  20:46:54  -4.23  -2.02    -0.978435    3               +0.0060
iter:  45  20:46:55  -5.39  -2.09    -0.978442    1               +0.0054
iter:  46  20:46:55  -4.74  -2.08    -0.978436    2               -0.0001
iter:  47  20:46:56  -4.12  -2.11    -0.978406    2               +0.0011
iter:  48  20:46:57  -4.28  -2.06    -0.978281    3               +0.0087
iter:  49  20:46:57  -4.79  -2.10    -0.978189    3               +0.0015
iter:  50  20:46:58  -5.07  -2.10    -0.978239    2               -0.0021
iter:  51  20:46:59  -4.91  -2.10    -0.978230    2               +0.0005
iter:  52  20:46:59  -5.24  -2.13    -0.978184    2               +0.0026
iter:  53  20:47:00  -5.78  -2.15    -0.978214    2               +0.0051
iter:  54  20:47:01  -5.54  -2.16    -0.978160    2               +0.0010
iter:  55  20:47:02  -4.75  -2.15    -0.978067    3               -0.0040
iter:  56  20:47:02  -4.39  -2.10    -0.978090    2               -0.0098
iter:  57  20:47:03  -4.13  -2.20    -0.977854    3               +0.0071
iter:  58  20:47:04  -3.82  -2.19    -0.978206    3               +0.0025
iter:  59  20:47:04  -4.34  -2.16    -0.978391    3               -0.0018
iter:  60  20:47:05  -3.88  -2.14    -0.978002    3               +0.0003
iter:  61  20:47:06  -4.16  -2.17    -0.978196    3               -0.0019
iter:  62  20:47:06  -4.51  -2.18    -0.978288    3               -0.0025
iter:  63  20:47:07  -4.32  -2.18    -0.978310    2               -0.0051
iter:  64  20:47:08  -4.50  -2.16    -0.978099    3               -0.0031
iter:  65  20:47:09  -4.39  -2.17    -0.978283    3               -0.0043
iter:  66  20:47:09  -4.48  -2.16    -0.978203    2               -0.0069
iter:  67  20:47:10  -4.13  -2.20    -0.978130    2               -0.0298
iter:  68  20:47:11  -4.22  -2.25    -0.977932    3               -0.0115
iter:  69  20:47:11  -3.93  -2.18    -0.978175    3               +0.0007
iter:  70  20:47:12  -3.93  -2.16    -0.978193    3               -0.0306
iter:  71  20:47:13  -4.93  -2.28    -0.978239    2               -0.0303
iter:  72  20:47:13  -4.50  -2.27    -0.978296    2               -0.0151
iter:  73  20:47:14  -4.71  -2.20    -0.978301    2               -0.0113
iter:  74  20:47:15  -4.14  -2.19    -0.978128    3               -0.0278
iter:  75  20:47:16  -4.45  -2.27    -0.978197    2               -0.0148
iter:  76  20:47:16  -5.30  -2.21    -0.978200    2               -0.0149
iter:  77  20:47:17  -4.89  -2.20    -0.978132    3               -0.0044
iter:  78  20:47:18  -4.74  -2.15    -0.978136    2               -0.0167
iter:  79  20:47:18  -5.74  -2.21    -0.978138    2               -0.0176
iter:  80  20:47:19  -4.54  -2.22    -0.978226    2               -0.0048
iter:  81  20:47:20  -4.51  -2.16    -0.978122    3               -0.0167
iter:  82  20:47:20  -4.53  -2.20    -0.978163    3               -0.0288
iter:  83  20:47:21  -4.59  -2.27    -0.978133    3               -0.0165
iter:  84  20:47:22  -5.14  -2.21    -0.978181    3               -0.0193
iter:  85  20:47:23  -4.65  -2.25    -0.978064    3               -0.0249
iter:  86  20:47:23  -4.84  -2.29    -0.978174    3               -0.0219
iter:  87  20:47:24  -4.31  -2.26    -0.978215    2               -0.0256
iter:  88  20:47:25  -4.08  -2.24    -0.978002    3               -0.0319
iter:  89  20:47:25  -4.32  -2.33    -0.977907    3               -0.0244
iter:  90  20:47:26  -3.67  -2.28    -0.978423    3               -0.0249
iter:  91  20:47:27  -4.14  -2.23    -0.978141    3               -0.0244
iter:  92  20:47:28  -2.56  -2.25    -0.980896    4               -0.0114
iter:  93  20:47:28  -2.11  -2.11    -0.977603    6               -0.0193
iter:  94  20:47:29  -2.34  -2.16    -0.978807    4               -0.0346
iter:  95  20:47:30  -2.81  -2.19    -0.980141    3               -0.0214
iter:  96  20:47:30  -2.65  -2.21    -0.977735    4               -0.0038
iter:  97  20:47:31  -1.76  -2.16    -0.993296    31              -0.0593
iter:  98  20:47:32  -1.97  -2.02    -0.978716    5               -0.0275
iter:  99  20:47:33  -1.93  -2.18    -0.978451    5               +0.0363
iter: 100  20:47:33  -3.02  -1.96    -0.978819    3               +0.0433
iter: 101  20:47:34  -1.65  -1.95    -0.982673    31              -0.0227
iter: 102  20:47:35  -2.40  -2.10    -0.987130    3               -0.0701
iter: 103  20:47:36  -2.27  -2.01    -0.977997    4               -0.0551
iter: 104  20:47:36  -2.20  -2.08    -0.977604    4               -0.0266
iter: 105  20:47:37  -2.31  -2.29    -0.978144    4               +0.0204
iter: 106  20:47:38  -2.52  -2.06    -0.978283    3               +0.0037
iter: 107  20:47:39  -2.39  -2.16    -0.977413    5               -0.0195
iter: 108  20:47:39  -2.84  -2.31    -0.977438    3               -0.0087
iter: 109  20:47:40  -3.53  -2.39    -0.977824    3               +0.0014
iter: 110  20:47:41  -4.13  -2.27    -0.977977    3               +0.0062
iter: 111  20:47:41  -2.86  -2.25    -0.979382    3               +0.0271
iter: 112  20:47:42  -3.18  -2.05    -0.978396    3               +0.0300
iter: 113  20:47:43  -3.31  -2.13    -0.979786    3               +0.0369
iter: 114  20:47:43  -3.28  -2.06    -0.978408    3               +0.0325
iter: 115  20:47:44  -4.11  -2.15    -0.978486    2               +0.0155
iter: 116  20:47:45  -3.71  -2.08    -0.978221    3               +0.0318
iter: 117  20:47:46  -4.40  -2.23    -0.978165    2               +0.0296
iter: 118  20:47:46  -4.74  -2.27    -0.978159    2               +0.0261
iter: 119  20:47:47  -5.29  -2.30    -0.978146    2               +0.0212
iter: 120  20:47:48  -4.17  -2.29    -0.978340    3               +0.0104
iter: 121  20:47:48  -5.01  -2.19    -0.978303    2               +0.0079
iter: 122  20:47:49  -3.84  -2.18    -0.978108    3               +0.0369
iter: 123  20:47:50  -3.45  -2.32    -0.978465    3               -0.0062
iter: 124  20:47:50  -4.02  -2.11    -0.978242    3               +0.0119
iter: 125  20:47:51  -4.15  -2.19    -0.978441    3               -0.0041
iter: 126  20:47:52  -4.82  -2.11    -0.978369    2               +0.0060
iter: 127  20:47:53  -4.42  -2.15    -0.978255    3               +0.0166
iter: 128  20:47:53  -5.26  -2.21    -0.978325    3               +0.0120
iter: 129  20:47:54  -4.40  -2.21    -0.978166    3               +0.0205
iter: 130  20:47:55  -5.00  -2.28    -0.978106    2               +0.0236
iter: 131  20:47:55  -3.01  -2.29    -0.979165    3               -0.0239
iter: 132  20:47:56  -3.90  -2.04    -0.979129    2               -0.0454
iter: 133  20:47:57  -4.47  -1.97    -0.978941    3               -0.0402
iter: 134  20:47:58  -3.58  -2.00    -0.978450    3               -0.0128
iter: 135  20:47:58  -3.70  -2.14    -0.978687    3               -0.0080
iter: 136  20:47:59  -3.86  -2.14    -0.978374    3               -0.0047
iter: 137  20:48:00  -4.63  -2.15    -0.978625    3               -0.0109
iter: 138  20:48:00  -4.60  -2.13    -0.978372    3               -0.0048
iter: 139  20:48:01  -5.12  -2.17    -0.978398    2               -0.0019
iter: 140  20:48:02  -4.54  -2.18    -0.978190    3               +0.0003
iter: 141  20:48:02  -4.30  -2.21    -0.978492    3               -0.0068
iter: 142  20:48:03  -2.90  -2.16    -0.977443    4               +0.0295
iter: 143  20:48:04  -3.34  -2.52    -0.977697    3               +0.0043
iter: 144  20:48:05  -4.04  -2.27    -0.977675    2               +0.0086
iter: 145  20:48:05  -3.21  -2.28    -0.978598    3               -0.0179
iter: 146  20:48:06  -2.47  -2.12    -0.977579    4               +0.0601
iter: 147  20:48:07  -3.40  -2.39    -0.977612    2               +0.0666
iter: 148  20:48:07  -3.60  -2.35    -0.977480    3               +0.0492
iter: 149  20:48:08  -2.30  -2.40    -0.980848    4               +0.1179
iter: 150  20:48:09  -3.07  -2.07    -0.979290    3               +0.0965
iter: 151  20:48:10  -3.41  -2.16    -0.980308    3               +0.0914
iter: 152  20:48:10  -3.30  -2.12    -0.981592    3               +0.1255
iter: 153  20:48:11  -3.33  -2.02    -0.979572    3               +0.0984
iter: 154  20:48:12  -1.95  -2.12    -0.978225    5               +0.0032
iter: 155  20:48:12  -2.69  -2.16    -0.977504    4               +0.0156
iter: 156  20:48:13  -2.99  -2.45    -0.978360    4               -0.0008
iter: 157  20:48:14  -3.56  -2.16    -0.978702    3               -0.0074
iter: 158  20:48:15  -4.14  -2.15    -0.978351    3               -0.0007
iter: 159  20:48:15  -4.01  -2.21    -0.978037    3               +0.0052
iter: 160  20:48:16  -4.79  -2.30    -0.977988    2               +0.0072
iter: 161  20:48:17  -5.48  -2.33    -0.977979    2               +0.0082
iter: 162  20:48:17  -3.36  -2.34    -0.978492    3               -0.0190
iter: 163  20:48:18  -4.13  -2.11    -0.978289    3               -0.0140
iter: 164  20:48:19  -2.40  -2.13    -0.977731    4               +0.0659
iter: 165  20:48:19  -2.47  -2.36    -0.977999    4               -0.0032
iter: 166  20:48:20  -3.25  -2.19    -0.978380    3               -0.0114
iter: 167  20:48:21  -3.13  -2.16    -0.977573    3               +0.0220
iter: 168  20:48:22  -3.51  -2.47    -0.977453    3               +0.0305
iter: 169  20:48:22  -2.45  -2.48    -0.978538    4               +0.0939
iter: 170  20:48:23  -3.10  -2.20    -0.977636    3               +0.0707
iter: 171  20:48:24  -3.03  -2.31    -0.979036    4               +0.1045
iter: 172  20:48:24  -3.31  -2.14    -0.978316    3               +0.0900
iter: 173  20:48:25  -2.64  -2.23    -0.977647    4               +0.0424
iter: 174  20:48:26  -3.58  -2.55    -0.977492    3               +0.0272
iter: 175  20:48:27  -2.78  -2.62    -0.978085    4               +0.0817
iter: 176  20:48:27  -3.41  -2.27    -0.978297    3               +0.0752
iter: 177  20:48:28  -3.70  -2.29    -0.978437    2               +0.0790
iter: 178  20:48:29  -3.49  -2.26    -0.979311    3               +0.0926
iter: 179  20:48:29  -3.11  -2.17    -0.977991    3               +0.0635
iter: 180  20:48:30  -2.38  -2.35    -0.977970    4               -0.0098
iter: 181  20:48:31  -3.17  -2.32    -0.977506    3               +0.0091
iter: 182  20:48:31  -3.50  -2.50    -0.978021    3               -0.0093
iter: 183  20:48:32  -4.36  -2.31    -0.977973    3               -0.0048
iter: 184  20:48:33  -3.23  -2.31    -0.977462    4               +0.0266
iter: 185  20:48:34  -3.24  -2.64    -0.977950    3               -0.0057
iter: 186  20:48:34  -4.14  -2.33    -0.977760    3               +0.0012
iter: 187  20:48:35  -4.28  -2.40    -0.977972    3               +0.0027
iter: 188  20:48:36  -4.00  -2.33    -0.977734    3               +0.0217
iter: 189  20:48:36  -3.88  -2.44    -0.977846    3               +0.0037
iter: 190  20:48:37  -4.39  -2.31    -0.977862    2               +0.0091
iter: 191  20:48:38  -3.76  -2.31    -0.978286    3               -0.0003
iter: 192  20:48:39  -4.09  -2.21    -0.978040    3               +0.0085
iter: 193  20:48:39  -4.55  -2.28    -0.978254    3               +0.0022
iter: 194  20:48:40  -4.56  -2.25    -0.978026    3               +0.0137
iter: 195  20:48:41  -4.32  -2.27    -0.978307    3               +0.0087
iter: 196  20:48:41  -4.75  -2.21    -0.978158    3               +0.0093
iter: 197  20:48:42  -5.21  -2.26    -0.978232    3               +0.0022
iter: 198  20:48:43  -3.93  -2.25    -0.977854    3               +0.0107
iter: 199  20:48:44  -4.10  -2.29    -0.977915    3               +0.0103
iter: 200  20:48:44  -4.32  -2.33    -0.977893    2               +0.0116
iter: 201  20:48:45  -4.41  -2.25    -0.977739    3               +0.0195
iter: 202  20:48:46  -3.17  -2.32    -0.978719    3               -0.0072
iter: 203  20:48:46  -3.94  -2.12    -0.978272    3               +0.0015
iter: 204  20:48:47  -5.00  -2.16    -0.978408    3               -0.0028
iter: 205  20:48:48  -5.52  -2.15    -0.978345    2               +0.0034
iter: 206  20:48:48  -4.59  -2.16    -0.978541    3               -0.0075
iter: 207  20:48:49  -3.68  -2.12    -0.979141    3               -0.0186
iter: 208  20:48:50  -3.58  -2.03    -0.978415    3               +0.0045
iter: 209  20:48:51  -4.33  -2.14    -0.978353    2               -0.0041
iter: 210  20:48:51  -5.21  -2.19    -0.978339    2               +0.0014
iter: 211  20:48:52  -4.64  -2.18    -0.978269    2               -0.0098
iter: 212  20:48:53  -4.53  -2.23    -0.978480    3               -0.0246
iter: 213  20:48:53  -4.55  -2.17    -0.978436    2               -0.0006
iter: 214  20:48:54  -5.42  -2.17    -0.978450    2               +0.0023
iter: 215  20:48:55  -5.50  -2.16    -0.978465    2               -0.0036
iter: 216  20:48:55  -5.55  -2.17    -0.978400    2               -0.0048
iter: 217  20:48:56  -5.27  -2.17    -0.978508    3               -0.0042
iter: 218  20:48:57  -5.66  -2.16    -0.978443    2               -0.0036
iter: 219  20:48:58  -5.14  -2.16    -0.978363    3               -0.0066
iter: 220  20:48:58  -4.96  -2.19    -0.978453    2               -0.0040
iter: 221  20:48:59  -5.55  -2.16    -0.978423    2               -0.0069
iter: 222  20:49:00  -5.89  -2.17    -0.978477    2               -0.0082
iter: 223  20:49:00  -4.56  -2.16    -0.978623    3               +0.0013
iter: 224  20:49:01  -4.47  -2.13    -0.978426    3               -0.0024
iter: 225  20:49:02  -5.42  -2.16    -0.978458    2               +0.0021
iter: 226  20:49:02  -5.75  -2.14    -0.978438    2               +0.0006
iter: 227  20:49:03  -4.67  -2.15    -0.978340    2               -0.0067
iter: 228  20:49:04  -4.88  -2.19    -0.978410    2               -0.0049
iter: 229  20:49:05  -5.05  -2.17    -0.978509    3               -0.0011
iter: 230  20:49:05  -4.95  -2.15    -0.978416    3               -0.0067
iter: 231  20:49:06  -5.36  -2.17    -0.978462    2               -0.0045
iter: 232  20:49:07  -5.55  -2.15    -0.978513    2               -0.0063
iter: 233  20:49:07  -4.52  -2.14    -0.978424    3               -0.0082
iter: 234  20:49:08  -4.65  -2.15    -0.978429    2               -0.0048
iter: 235  20:49:09  -5.57  -2.16    -0.978481    2               -0.0015
iter: 236  20:49:09  -4.50  -2.16    -0.978258    3               -0.0089
iter: 237  20:49:10  -4.69  -2.20    -0.978222    2               -0.0153
iter: 238  20:49:11  -4.66  -2.24    -0.978145    3               -0.0207
iter: 239  20:49:11  -4.24  -2.32    -0.978053    3               -0.0311
iter: 240  20:49:12  -2.89  -2.43    -0.979549    3               +0.0224
iter: 241  20:49:13  -3.41  -2.04    -0.978636    3               +0.0100
iter: 242  20:49:14  -3.77  -2.12    -0.978434    3               -0.0034
iter: 243  20:49:14  -4.02  -2.18    -0.978297    3               -0.0063
iter: 244  20:49:15  -3.12  -2.27    -0.978174    3               -0.0575
iter: 245  20:49:16  -2.87  -2.45    -0.978687    3               +0.0063
iter: 246  20:49:17  -3.32  -2.13    -0.979650    3               +0.0122
iter: 247  20:49:17  -2.89  -2.05    -0.977927    4               -0.0184
iter: 248  20:49:18  -2.81  -2.38    -0.977797    4               -0.0795
iter: 249  20:49:19  -3.06  -2.32    -0.977908    3               -0.0628
iter: 250  20:49:19  -3.06  -2.39    -0.978416    3               -0.0159
iter: 251  20:49:20  -3.99  -2.20    -0.978462    3               -0.0112
iter: 252  20:49:21  -4.28  -2.16    -0.978656    3               -0.0128
iter: 253  20:49:21  -4.50  -2.15    -0.978485    3               -0.0169
iter: 254  20:49:22  -4.33  -2.17    -0.978754    3               -0.0059
iter: 255  20:49:23  -4.37  -2.13    -0.978586    3               -0.0166
iter: 256  20:49:24  -4.42  -2.18    -0.978880    3               -0.0111
iter: 257  20:49:24  -3.00  -2.16    -0.977830    4               -0.0546
iter: 258  20:49:25  -3.56  -2.46    -0.977666    3               -0.0525
iter: 259  20:49:26  -2.26  -2.44    -0.980186    4               -0.1474
iter: 260  20:49:26  -3.17  -2.03    -0.979333    3               -0.1224
iter: 261  20:49:27  -2.37  -2.11    -0.978046    4               -0.0752
iter: 262  20:49:28  -2.86  -2.25    -0.978390    4               -0.1107
iter: 263  20:49:29  -2.75  -2.15    -0.978313    4               -0.0675
iter: 264  20:49:29  -3.15  -2.26    -0.978994    3               -0.0336
iter: 265  20:49:30  -4.00  -2.24    -0.979334    3               -0.0210
iter: 266  20:49:31  -3.34  -2.17    -0.979854    2               +0.0285
iter: 267  20:49:31  -2.62  -2.03    -0.984455    4               +0.0764
iter: 268  20:49:32  -3.40  -1.81    -0.982895    3               +0.0532
iter: 269  20:49:33  -4.09  -1.87    -0.982344    3               +0.0489
iter: 270  20:49:34  -3.99  -1.89    -0.983354    3               +0.0565
iter: 271  20:49:34  -1.83  -1.87    -0.977920    31              -0.0912
iter: 272  20:49:35  -2.67  -2.25    -0.978845    3               -0.1105
iter: 273  20:49:36  -2.39  -2.16    -0.977833    4               -0.0548
iter: 274  20:49:36  -2.51  -2.26    -0.978082    4               -0.0984
iter: 275  20:49:37  -3.11  -2.11    -0.977915    3               -0.0710
iter: 276  20:49:38  -3.03  -2.35    -0.977877    3               -0.0384
iter: 277  20:49:39  -1.93  -2.64    -0.984987    4               +0.1022
iter: 278  20:49:39  -2.88  -1.75    -0.985122    2               +0.1120
iter: 279  20:49:40  -3.31  -1.76    -0.982364    3               +0.0678
iter: 280  20:49:41  -4.09  -1.85    -0.983342    3               +0.0822
iter: 281  20:49:41  -3.97  -1.83    -0.984158    3               +0.0837
iter: 282  20:49:42  -3.50  -1.79    -0.982614    3               +0.0801
iter: 283  20:49:43  -2.70  -1.87    -0.979185    4               +0.0283
iter: 284  20:49:44  -3.58  -2.12    -0.979578    3               +0.0368
iter: 285  20:49:44  -4.15  -2.09    -0.979290    3               +0.0487
iter: 286  20:49:45  -3.78  -2.06    -0.978715    3               +0.0038
iter: 287  20:49:46  -3.41  -2.17    -0.979650    3               +0.0187
iter: 288  20:49:46  -3.54  -2.05    -0.980751    3               +0.0532
iter: 289  20:49:47  -2.82  -1.96    -0.978375    4               +0.0314
iter: 290  20:49:48  -3.81  -2.18    -0.978492    3               +0.0182
iter: 291  20:49:49  -3.84  -2.22    -0.979086    3               +0.0081
iter: 292  20:49:49  -2.21  -2.12    -0.978320    4               -0.1058
iter: 293  20:49:50  -3.03  -2.20    -0.977919    3               -0.0842
iter: 294  20:49:51  -4.04  -2.29    -0.977660    3               -0.0594
iter: 295  20:49:51  -2.55  -2.45    -0.978491    4               +0.0116
iter: 296  20:49:52  -2.62  -2.16    -0.977521    4               -0.0487
iter: 297  20:49:53  -2.61  -2.54    -0.979289    4               -0.1166
iter: 298  20:49:54  -3.67  -2.17    -0.979773    3               -0.1263
iter: 299  20:49:54  -3.65  -2.15    -0.980878    3               -0.1436
iter: 300  20:49:55  -1.93  -2.07    -0.994770    4               -0.2046
iter: 301  20:49:56  -2.95  -1.63    -0.993279    3               -0.2021
iter: 302  20:49:56  -2.73  -1.66    -0.986427    3               -0.1787
iter: 303  20:49:57  -3.28  -1.80    -0.989624    3               -0.1925
iter: 304  20:49:58  -3.31  -1.72    -0.986685    3               -0.1877
iter: 305  20:49:59  -2.51  -1.80    -0.995113    4               -0.2056
iter: 306  20:49:59  -3.35  -1.62    -0.996287    3               -0.2065
iter: 307  20:50:00  -4.10  -1.60    -0.995142    3               -0.2051
iter: 308  20:50:01  -4.12  -1.62    -0.996909    2               -0.2103
iter: 309  20:50:01  -1.98  -1.59    -0.982084    4               -0.1593
iter: 310  20:50:02  -2.97  -1.97    -0.982047    2               -0.1536
iter: 311  20:50:02  -3.93  -1.99    -0.983173    2               -0.1766
iter: 312  20:50:03  -3.75  -1.97    -0.983350    3               -0.1537
iter: 313  20:50:04  -3.12  -1.92    -0.986414    3               -0.1707
iter: 314  20:50:04  -4.00  -1.80    -0.985628    3               -0.1676
iter: 315  20:50:05  -4.10  -1.82    -0.984614    3               -0.1613
iter: 316  20:50:06  -4.62  -1.85    -0.985123    3               -0.1803
iter: 317  20:50:06  -4.39  -1.86    -0.985102    3               -0.1630
iter: 318  20:50:07  -4.14  -1.86    -0.984957    3               -0.1450
iter: 319  20:50:08  -4.16  -1.82    -0.984717    3               -0.1590
iter: 320  20:50:08  -4.21  -1.85    -0.984109    3               -0.1545
iter: 321  20:50:09  -4.80  -1.88    -0.984244    2               -0.1623
iter: 322  20:50:10  -4.50  -1.90    -0.985138    3               -0.1713
iter: 323  20:50:11  -3.71  -1.88    -0.983657    3               -0.1695
iter: 324  20:50:11  -3.55  -1.92    -0.982260    3               -0.1632
iter: 325  20:50:12  -2.91  -1.99    -0.986202    3               -0.1887
iter: 326  20:50:13  -2.13  -1.84    -0.980317    4               -0.1813
iter: 327  20:50:13  -2.56  -2.05    -0.979272    3               -0.1470
iter: 328  20:50:14  -2.30  -2.09    -0.982120    4               -0.1974
iter: 329  20:50:15  -2.50  -2.07    -0.984793    4               -0.1694
iter: 330  20:50:15  -3.08  -1.90    -0.982101    3               -0.1440
iter: 331  20:50:16  -3.82  -2.00    -0.981303    3               -0.1341
iter: 332  20:50:17  -3.34  -2.04    -0.983641    3               -0.1678
iter: 333  20:50:17  -4.02  -1.96    -0.982685    3               -0.1543
iter: 334  20:50:18  -3.49  -1.99    -0.984867    3               -0.1748
iter: 335  20:50:19  -4.26  -1.90    -0.985092    3               -0.1742
iter: 336  20:50:19  -5.06  -1.89    -0.984829    2               -0.1722
iter: 337  20:50:20  -4.66  -1.89    -0.984215    3               -0.1649
iter: 338  20:50:21  -4.51  -1.91    -0.983603    3               -0.1577
iter: 339  20:50:21  -5.08  -1.94    -0.983423    2               -0.1576
iter: 340  20:50:22  -3.42  -1.95    -0.985375    3               -0.1595
iter: 341  20:50:23  -3.03  -1.87    -0.981958    3               -0.1419
iter: 342  20:50:23  -3.16  -1.99    -0.985051    3               -0.1584
iter: 343  20:50:24  -3.86  -1.87    -0.985696    3               -0.1591
iter: 344  20:50:25  -4.31  -1.85    -0.984968    3               -0.1572
iter: 345  20:50:25  -4.78  -1.87    -0.984521    2               -0.1518
iter: 346  20:50:26  -5.33  -1.89    -0.984304    2               -0.1483
iter: 347  20:50:27  -3.72  -1.89    -0.983157    3               -0.1465
iter: 348  20:50:27  -4.42  -1.94    -0.983897    3               -0.1554
iter: 349  20:50:28  -3.92  -1.93    -0.985214    2               -0.1742
iter: 350  20:50:29  -4.63  -1.88    -0.984884    3               -0.1617
iter: 351  20:50:29  -4.89  -1.89    -0.985336    3               -0.1662
iter: 352  20:50:30  -4.78  -1.88    -0.984912    3               -0.1646
iter: 353  20:50:31  -3.80  -1.89    -0.982885    3               -0.1355
iter: 354  20:50:31  -3.22  -1.94    -0.981648    3               -0.1604
iter: 355  20:50:32  -3.22  -2.07    -0.981287    3               -0.1826
iter: 356  20:50:33  -2.91  -2.09    -0.981243    4               -0.1980
iter: 357  20:50:34  -3.08  -2.14    -0.981886    4               -0.2045
iter: 358  20:50:35  -3.48  -2.19    -0.981200    3               -0.1968
iter: 359  20:50:35  -4.48  -2.13    -0.981535    3               -0.2023
iter: 360  20:50:36  -2.85  -2.17    -0.983220    4               -0.2132
iter: 361  20:50:37  -3.85  -2.20    -0.983293    2               -0.2138
iter: 362  20:50:37  -4.79  -2.18    -0.983241    3               -0.2130
iter: 363  20:50:38  -4.58  -2.18    -0.983524    3               -0.2139
iter: 364  20:50:39  -4.44  -2.15    -0.983812    3               -0.2146
iter: 365  20:50:40  -3.42  -2.10    -0.982739    4               -0.2117
iter: 366  20:50:40  -4.13  -2.25    -0.982535    3               -0.2104
iter: 367  20:50:41  -3.99  -2.28    -0.982291    3               -0.2115
iter: 368  20:50:42  -4.06  -2.30    -0.982662    3               -0.2125
iter: 369  20:50:42  -4.62  -2.32    -0.982803    3               -0.2125
iter: 370  20:50:43  -5.01  -2.33    -0.982845    3               -0.2137
iter: 371  20:50:44  -4.28  -2.31    -0.982527    3               -0.2129
iter: 372  20:50:45  -2.67  -2.35    -0.981857    4               -0.2069
iter: 373  20:50:45  -3.65  -2.17    -0.981852    3               -0.2079
iter: 374  20:50:46  -4.37  -2.16    -0.981744    3               -0.2076
iter: 375  20:50:47  -4.78  -2.15    -0.981884    3               -0.2092
iter: 376  20:50:47  -5.11  -2.19    -0.981883    3               -0.2092
iter: 377  20:50:48  -3.36  -2.20    -0.982011    3               -0.2104
iter: 378  20:50:49  -2.50  -2.28    -0.984695    5               -0.2137
iter: 379  20:50:50  -2.74  -2.05    -0.982417    4               -0.2121
iter: 380  20:50:50  -3.49  -2.33    -0.982137    4               -0.2112
iter: 381  20:50:51  -3.52  -2.31    -0.981921    4               -0.2099
iter: 382  20:50:52  -4.27  -2.25    -0.981977    3               -0.2108
iter: 383  20:50:52  -3.56  -2.27    -0.982256    3               -0.2123
iter: 384  20:50:53  -4.38  -2.31    -0.982114    3               -0.2118
iter: 385  20:50:54  -4.12  -2.29    -0.982377    3               -0.2127
iter: 386  20:50:55  -4.41  -2.33    -0.982535    3               -0.2131
iter: 387  20:50:55  -4.51  -2.36    -0.982369    3               -0.2129
iter: 388  20:50:56  -5.25  -2.34    -0.982365    2               -0.2128
iter: 389  20:50:57  -5.44  -2.34    -0.982328    3               -0.2123
iter: 390  20:50:57  -4.88  -2.35    -0.982454    3               -0.2130
iter: 391  20:50:58  -4.45  -2.36    -0.982635    3               -0.2129
iter: 392  20:50:59  -4.77  -2.36    -0.982762    3               -0.2129
iter: 393  20:51:00  -3.20  -2.35    -0.982132    4               -0.2136
iter: 394  20:51:00  -3.34  -2.32    -0.982604    3               -0.2127
iter: 395  20:51:01  -3.13  -2.34    -0.983641    3               -0.2120
iter: 396  20:51:02  -2.99  -2.11    -0.982285    4               -0.2121
iter: 397  20:51:02  -2.79  -2.29    -0.982386    4               -0.2133
iter: 398  20:51:03  -3.38  -2.42    -0.983014    4               -0.2142
iter: 399  20:51:04  -2.78  -2.25    -0.981940    4               -0.2109
iter: 400  20:51:05  -3.62  -2.23    -0.982085    3               -0.2113
iter: 401  20:51:05  -3.19  -2.26    -0.982234    4               -0.2135
iter: 402  20:51:06  -4.30  -2.36    -0.982108    3               -0.2127
iter: 403  20:51:07  -4.20  -2.28    -0.982346    3               -0.2136
iter: 404  20:51:07  -3.94  -2.38    -0.982090    3               -0.2128
iter: 405  20:51:08  -4.36  -2.30    -0.982224    3               -0.2130
iter: 406  20:51:09  -5.02  -2.36    -0.982247    3               -0.2135
iter: 407  20:51:09  -4.90  -2.40    -0.982317    3               -0.2136
iter: 408  20:51:10  -4.56  -2.43    -0.982443    3               -0.2140
iter: 409  20:51:11  -5.54  -2.46    -0.982456    2               -0.2140
iter: 410  20:51:12  -5.54  -2.46    -0.982419    3               -0.2139
iter: 411  20:51:12  -5.12  -2.47    -0.982498    3               -0.2141
iter: 412  20:51:13  -4.97  -2.49    -0.982528    3               -0.2139
iter: 413  20:51:14  -5.14  -2.44    -0.982476    3               -0.2135
iter: 414  20:51:15  -4.83  -2.37    -0.982396    3               -0.2136
iter: 415  20:51:15  -4.90  -2.39    -0.982494    3               -0.2136
iter: 416  20:51:16  -4.49  -2.39    -0.982554    3               -0.2133
iter: 417  20:51:17  -3.93  -2.35    -0.982404    4               -0.2141
iter: 418  20:51:17  -4.52  -2.45    -0.982336    3               -0.2143
iter: 419  20:51:18  -4.35  -2.45    -0.982281    3               -0.2150
iter: 420  20:51:19  -3.93  -2.47    -0.982318    4               -0.2159
iter: 421  20:51:19  -3.98  -2.63    -0.982427    4               -0.2171
iter: 422  20:51:20  -3.09  -2.70    -0.983353    4               -0.2214
iter: 423  20:51:21  -3.15  -2.24    -0.982465    4               -0.2172
iter: 424  20:51:22  -3.96  -2.65    -0.982392    3               -0.2169
iter: 425  20:51:22  -4.85  -2.75    -0.982424    3               -0.2171
iter: 426  20:51:23  -5.88  -2.75    -0.982420    2               -0.2174
iter: 427  20:51:24  -5.45  -2.76    -0.982440    3               -0.2172
iter: 428  20:51:25  -5.90  -2.72    -0.982420    3               -0.2169
iter: 429  20:51:25  -4.52  -2.71    -0.982500    3               -0.2167
iter: 430  20:51:26  -3.45  -2.59    -0.982322    4               -0.2164
iter: 431  20:51:27  -3.90  -2.65    -0.982430    3               -0.2184
iter: 432  20:51:27  -4.57  -2.78    -0.982403    3               -0.2167
iter: 433  20:51:28  -4.04  -2.76    -0.982586    3               -0.2175
iter: 434  20:51:29  -3.57  -2.55    -0.982282    4               -0.2152
iter: 435  20:51:30  -4.39  -2.53    -0.982363    3               -0.2157
iter: 436  20:51:30  -5.71  -2.63    -0.982360    2               -0.2159
iter: 437  20:51:31  -4.15  -2.64    -0.982500    4               -0.2157
iter: 438  20:51:32  -5.21  -2.58    -0.982491    3               -0.2158
iter: 439  20:51:32  -5.19  -2.61    -0.982434    2               -0.2150
iter: 440  20:51:33  -4.86  -2.56    -0.982537    3               -0.2157
iter: 441  20:51:34  -5.43  -2.55    -0.982550    3               -0.2156
iter: 442  20:51:35  -5.76  -2.52    -0.982515    2               -0.2152
iter: 443  20:51:35  -4.40  -2.54    -0.982690    3               -0.2150
iter: 444  20:51:36  -4.95  -2.42    -0.982606    3               -0.2153
iter: 445  20:51:37  -5.32  -2.47    -0.982558    3               -0.2151
iter: 446  20:51:37  -5.53  -2.51    -0.982558    3               -0.2156
iter: 447  20:51:38  -5.16  -2.53    -0.982490    2               -0.2149
iter: 448  20:51:39  -4.03  -2.53    -0.982786    4               -0.2146
iter: 449  20:51:40  -3.52  -2.38    -0.982295    4               -0.2141
iter: 450  20:51:40  -3.53  -2.47    -0.982327    4               -0.2160
iter: 451  20:51:41  -4.50  -2.65    -0.982366    3               -0.2172
iter: 452  20:51:42  -5.07  -2.85    -0.982380    3               -0.2172
iter: 453  20:51:42  -4.69  -2.83    -0.982429    3               -0.2176
iter: 454  20:51:43  -3.97  -2.80    -0.982347    4               -0.2167
iter: 455  20:51:44  -4.55  -2.80    -0.982378    3               -0.2174
iter: 456  20:51:44  -4.37  -2.87    -0.982415    3               -0.2166
iter: 457  20:51:45  -3.95  -2.72    -0.982333    4               -0.2162
iter: 458  20:51:46  -4.89  -2.71    -0.982353    3               -0.2175
iter: 459  20:51:47  -5.08  -2.84    -0.982357    3               -0.2175
iter: 460  20:51:47  -3.74  -2.86    -0.982454    4               -0.2181
iter: 461  20:51:48  -3.60  -2.72    -0.982373    4               -0.2178
iter: 462  20:51:49  -4.07  -2.98    -0.982378    4               -0.2175
iter: 463  20:51:50  -4.40  -2.89    -0.982365    3               -0.2177
iter: 464  20:51:50  -3.54  -2.98    -0.982475    4               -0.2150
iter: 465  20:51:51  -3.54  -2.58    -0.982360    4               -0.2178
iter: 466  20:51:52  -4.49  -2.95    -0.982350    3               -0.2163
iter: 467  20:51:52  -4.27  -2.72    -0.982393    3               -0.2155
iter: 468  20:51:53  -3.48  -2.63    -0.982388    4               -0.2182
iter: 469  20:51:54  -4.47  -2.99    -0.982375    3               -0.2189
iter: 470  20:51:55  -3.09  -3.22    -0.982723    4               -0.2157
iter: 471  20:51:55  -3.47  -2.41    -0.982425    4               -0.2200
iter: 472  20:51:56  -3.73  -2.75    -0.982310    3               -0.2155
iter: 473  20:51:57  -3.41  -2.60    -0.982684    4               -0.2154
iter: 474  20:51:57  -4.46  -2.43    -0.982656    3               -0.2159
iter: 475  20:51:58  -4.46  -2.46    -0.982809    3               -0.2154
iter: 476  20:51:59  -3.11  -2.36    -0.982343    3               -0.2173
iter: 477  20:51:59  -3.96  -2.83    -0.982386    4               -0.2167
iter: 478  20:52:00  -4.43  -2.72    -0.982425    3               -0.2159
iter: 479  20:52:01  -5.49  -2.64    -0.982426    3               -0.2163
iter: 480  20:52:02  -4.98  -2.70    -0.982441    3               -0.2174
iter: 481  20:52:02  -3.38  -2.74    -0.982421    4               -0.2195
iter: 482  20:52:03  -4.35  -2.89    -0.982434    2               -0.2185
iter: 483  20:52:04  -4.11  -2.83    -0.982353    4               -0.2170
iter: 484  20:52:04  -5.23  -2.82    -0.982361    3               -0.2173
iter: 485  20:52:05  -5.24  -2.84    -0.982363    3               -0.2176
iter: 486  20:52:06  -5.09  -2.92    -0.982360    3               -0.2173
iter: 487  20:52:07  -4.63  -2.86    -0.982376    3               -0.2168
iter: 488  20:52:07  -5.06  -2.80    -0.982407    3               -0.2170
iter: 489  20:52:08  -4.10  -2.83    -0.982370    4               -0.2184
iter: 490  20:52:09  -3.97  -3.15    -0.982407    3               -0.2175
iter: 491  20:52:09  -3.95  -2.85    -0.982369    4               -0.2183
iter: 492  20:52:10  -4.72  -3.12    -0.982359    3               -0.2171
iter: 493  20:52:11  -4.84  -2.84    -0.982354    3               -0.2171
iter: 494  20:52:12  -4.61  -2.83    -0.982384    3               -0.2182
iter: 495  20:52:12  -3.80  -3.03    -0.982550    4               -0.2205
iter: 496  20:52:13  -3.00  -2.59    -0.983498    4               -0.2292
iter: 497  20:52:14  -3.34  -2.15    -0.984860    4               -0.2292
iter: 498  20:52:14  -2.67  -2.00    -0.982602    4               -0.2210
iter: 499  20:52:15  -3.23  -2.50    -0.982365    4               -0.2178
iter: 500  20:52:16  -4.28  -2.99    -0.982377    3               -0.2177
iter: 501  20:52:17  -4.30  -2.92    -0.982364    3               -0.2175
iter: 502  20:52:17  -3.40  -2.94    -0.982555    4               -0.2209
iter: 503  20:52:18  -4.07  -2.57    -0.982424    4               -0.2193
iter: 504  20:52:19  -5.05  -2.84    -0.982413    3               -0.2191
iter: 505  20:52:19  -5.64  -2.90    -0.982403    3               -0.2196
iter: 506  20:52:20  -4.60  -2.97    -0.982451    3               -0.2208
iter: 507  20:52:21  -3.86  -2.75    -0.982370    4               -0.2192
iter: 508  20:52:22  -4.56  -3.59    -0.982373    3               -0.2181
iter: 509  20:52:22  -4.51  -3.11    -0.982376    3               -0.2183
iter: 510  20:52:23  -5.38  -3.13    -0.982368    3               -0.2180
iter: 511  20:52:24  -6.20  -3.05    -0.982368    2               -0.2178
iter: 512  20:52:24  -4.53  -3.01    -0.982380    3               -0.2184
iter: 513  20:52:25  -5.01  -3.23    -0.982370    3               -0.2182
iter: 514  20:52:26  -5.69  -3.11    -0.982375    3               -0.2184
iter: 515  20:52:27  -4.81  -3.22    -0.982374    3               -0.2191
iter: 516  20:52:27  -5.72  -3.55    -0.982373    3               -0.2192
iter: 517  20:52:28  -5.75  -3.72    -0.982375    3               -0.2189
iter: 518  20:52:29  -5.81  -3.44    -0.982379    3               -0.2189
iter: 519  20:52:29  -4.72  -3.35    -0.982406    3               -0.2195
iter: 520  20:52:30  -5.24  -2.96    -0.982391    3               -0.2191
iter: 521  20:52:31  -5.86  -3.11    -0.982391    2               -0.2186
iter: 522  20:52:32  -5.76  -3.10    -0.982395    3               -0.2193
iter: 523  20:52:32  -4.12  -3.07    -0.982373    4               -0.2181
iter: 524  20:52:33  -4.36  -3.09    -0.982381    3               -0.2191
iter: 525  20:52:34  -4.63  -3.29    -0.982373    3               -0.2192
iter: 526  20:52:34  -3.65  -3.56    -0.982467    4               -0.2216
iter: 527  20:52:35  -4.70  -2.68    -0.982479    2               -0.2211
iter: 528  20:52:36  -3.53  -2.68    -0.982348    4               -0.2218
iter: 529  20:52:36  -3.57  -2.91    -0.982449    4               -0.2186
iter: 530  20:52:37  -4.52  -2.80    -0.982401    3               -0.2194
iter: 531  20:52:38  -4.45  -2.97    -0.982369    3               -0.2201
iter: 532  20:52:39  -5.61  -3.50    -0.982369    2               -0.2202
iter: 533  20:52:39  -4.62  -3.47    -0.982367    3               -0.2205
iter: 534  20:52:40  -4.30  -3.27    -0.982408    3               -0.2210
iter: 535  20:52:41  -4.76  -2.86    -0.982381    3               -0.2206
iter: 536  20:52:41  -5.68  -3.05    -0.982381    2               -0.2204
iter: 537  20:52:42  -4.67  -3.10    -0.982366    3               -0.2202
iter: 538  20:52:43  -5.05  -3.46    -0.982369    3               -0.2206
iter: 539  20:52:44  -4.01  -3.22    -0.982398    4               -0.2196
iter: 540  20:52:44  -4.54  -3.00    -0.982369    3               -0.2200
iter: 541  20:52:45  -4.39  -3.48    -0.982417    3               -0.2194
iter: 542  20:52:46  -5.01  -2.89    -0.982436    3               -0.2196
iter: 543  20:52:46  -5.94  -2.81    -0.982439    2               -0.2195
iter: 544  20:52:47  -5.28  -2.80    -0.982411    3               -0.2199
iter: 545  20:52:48  -4.64  -2.91    -0.982374    3               -0.2202
iter: 546  20:52:49  -5.70  -3.23    -0.982373    2               -0.2203
iter: 547  20:52:49  -5.84  -3.25    -0.982381    3               -0.2203
iter: 548  20:52:50  -7.09  -3.13    -0.982380    2               -0.2202
iter: 549  20:52:51  -5.74  -3.14    -0.982372    3               -0.2203
iter: 550  20:52:51  -5.57  -3.29    -0.982383    3               -0.2201
iter: 551  20:52:52  -5.01  -3.13    -0.982367    3               -0.2203
iter: 552  20:52:53  -6.07  -3.46    -0.982367    2               -0.2203
iter: 553  20:52:53  -5.97  -3.45    -0.982366    3               -0.2202
iter: 554  20:52:54  -5.24  -3.40    -0.982364    3               -0.2205
iter: 555  20:52:55  -5.69  -3.32    -0.982368    3               -0.2201
iter: 556  20:52:56  -5.31  -3.62    -0.982372    2               -0.2190
iter: 557  20:52:56  -6.09  -3.51    -0.982372    2               -0.2192
iter: 558  20:52:57  -6.54  -3.68    -0.982372    2               -0.2193
iter: 559  20:52:58  -4.85  -3.86    -0.982380    3               -0.2196
iter: 560  20:52:58  -5.87  -3.26    -0.982380    2               -0.2196
iter: 561  20:52:59  -5.31  -3.25    -0.982389    3               -0.2201
iter: 562  20:53:00  -5.45  -3.06    -0.982377    3               -0.2202
iter: 563  20:53:01  -5.56  -3.21    -0.982374    3               -0.2198
iter: 564  20:53:01  -5.60  -3.40    -0.982370    3               -0.2198
iter: 565  20:53:02  -5.88  -3.77    -0.982370    3               -0.2202
iter: 566  20:53:03  -5.38  -3.51    -0.982376    3               -0.2203
iter: 567  20:53:03  -5.85  -3.22    -0.982375    3               -0.2199
iter: 568  20:53:04  -6.92  -3.33    -0.982375    2               -0.2199
iter: 569  20:53:05  -5.50  -3.30    -0.982371    3               -0.2197
iter: 570  20:53:05  -5.90  -3.62    -0.982374    3               -0.2197
iter: 571  20:53:06  -5.82  -3.43    -0.982372    3               -0.2196
iter: 572  20:53:07  -6.79  -3.73    -0.982372    2               -0.2196
iter: 573  20:53:08  -7.63  -3.66    -0.982372    2               -0.2195
iter: 574  20:53:08  -6.67  -3.68    -0.982371    2               -0.2198
iter: 575  20:53:09  -6.24  -3.66    -0.982373    2               -0.2196
iter: 576  20:53:10  -5.79  -3.50    -0.982371    3               -0.2197
iter: 577  20:53:10  -6.07  -3.91    -0.982371    3               -0.2196
iter: 578  20:53:11  -6.94  -4.56    -0.982371    2               -0.2195
iter: 579  20:53:12  -6.56  -4.26    -0.982371    3               -0.2195
iter: 580  20:53:13  -7.36  -3.97    -0.982372    2               -0.2195
iter: 581  20:53:13  -6.19  -3.89    -0.982372    3               -0.2197
iter: 582  20:53:14  -5.69  -3.63    -0.982374    3               -0.2199
iter: 583  20:53:15  -6.32  -3.36    -0.982376    3               -0.2200
iter: 584  20:53:15  -4.99  -3.28    -0.982372    3               -0.2194
iter: 585  20:53:16  -6.02  -4.08    -0.982371    2               -0.2195
iter: 586  20:53:17  -6.47  -4.22    -0.982372    2               -0.2194
iter: 587  20:53:18  -5.68  -4.07    -0.982372    3               -0.2196
iter: 588  20:53:18  -6.37  -3.72    -0.982371    3               -0.2196
iter: 589  20:53:19  -5.69  -3.91    -0.982372    3               -0.2195
iter: 590  20:53:20  -6.79  -4.01    -0.982372    2               -0.2195
iter: 591  20:53:20  -7.66  -4.10    -0.982372    2               -0.2195

Converged after 591 iterations.

Dipole moment: (0.000000, 0.000000, 0.000000) |e|*Ang

Total magnetic moment: -0.219476
Local magnetic moments:
   0 Br -0.158642

Energy contributions relative to reference atoms: (reference = -70902.247729)

Kinetic:         +0.610452
Potential:       -0.394783
External:        +0.000000
XC:              -1.161812
Entropy (-ST):   -0.002163
Local:           -0.035147
--------------------------
Free energy:     -0.983453
Extrapolated:    -0.982372

Spin contamination: 0.000174 electrons
Fermi level: 2.61920

Warning: Showing only first 2 kpts
                      Up                     Down
 Kpt  Band  Eigenvalues  Occupancy  Eigenvalues  Occupancy
  0     1      2.98565    0.00000      2.78798    0.00000
  0     2      3.27888    0.00000      3.07401    0.00000
  0     3      3.27926    0.00000      3.07473    0.00000

  1     1      1.95322    0.01562      1.76918    0.01562
  1     2      3.21796    0.00000      3.01412    0.00000
  1     3      3.21845    0.00000      3.01505    0.00000


Input parameters:
  convergence: {bands: all}
  eigensolver: {name: cg,
                niter: 5}
  fixdensity: True
  kpts: {npoints: 50,
         path: GHNGP}
  nbands: -4
  symmetry: off

Initialize ...

Br-setup:
  name: Bromine
  id: 39dc90fcf3bf77f2d83386b416c2c495
  Z: 35
  valence: 7
  core: 28
  charge: 0.0
  file: /usr/share/gpaw-setups/Br.PBE.gz
  cutoffs: 1.11(comp), 1.98(filt), 2.38(core), lmax=2
  valence states:
                energy  radius
    4s(2.00)   -20.121   1.111
    4p(5.00)    -7.861   1.111
    *s           7.091   1.111
    *p          19.351   1.111
    *d           0.000   1.111

  Using partial waves for Br as LCAO basis

Reference energy: -70902.247729

Spin-polarized calculation.
Magnetic moment:  0.000000

Occupation numbers:
  Fixed Fermi level
  Fermi-Dirac: width=0.0200 eV

Convergence criteria:
  Maximum total energy change: 0.0005 eV / electron
  Maximum integral of absolute density change: 0.0001 electrons
  Maximum integral of absolute eigenstate change: 4e-08 eV^2
  Maximum number of iterations: 1500

Symmetries present (total): 1

  ( 1  0  0)
  ( 0  1  0)
  ( 0  0  1)

50 k-points
50 k-points in the irreducible part of the Brillouin zone
       k-points in crystal coordinates                weights
   0:     0.00000000    0.00000000    0.00000000          1/50
   1:     0.03571429   -0.03571429    0.03571429          1/50
   2:     0.07142857   -0.07142857    0.07142857          1/50
   3:     0.10714286   -0.10714286    0.10714286          1/50
   4:     0.14285714   -0.14285714    0.14285714          1/50
   5:     0.17857143   -0.17857143    0.17857143          1/50
   6:     0.21428571   -0.21428571    0.21428571          1/50
   7:     0.25000000   -0.25000000    0.25000000          1/50
   8:     0.28571429   -0.28571429    0.28571429          1/50
   9:     0.32142857   -0.32142857    0.32142857          1/50
          ...
  49:     0.25000000    0.25000000    0.25000000          1/50

Wave functions: Plane wave expansion
  Cutoff energy: 400.000 eV
  Number of coefficients (min, max): 459, 496
  Using FFTW library
  Eigensolver: None  MatrixOperator buffer_size: default value or 
                              see value of nblock in input file
Diagonalizer layout: Serial LAPACKOrthonormalizer layout: Serial LAPACK 

CG(niter=5, rtol=3.0e-01) 

No density mixing

Memory estimate:
  Process memory now: 982.71 MiB
  Calculator: 10.16 MiB
    Density: 1.30 MiB
      Arrays: 0.46 MiB
      Localized functions: 0.26 MiB
      Mixer: 0.58 MiB
    Hamiltonian: 0.35 MiB
      Arrays: 0.34 MiB
      XC: 0.00 MiB
      Poisson: 0.00 MiB
      vbar: 0.01 MiB
    Wavefunctions: 8.51 MiB
      Arrays psit_nG: 5.30 MiB
      Eigensolver: 0.09 MiB
      Projections: 0.14 MiB
      Projectors: 2.59 MiB
      Overlap op: 0.05 MiB
      PW-descriptor: 0.34 MiB

Total number of cores used: 1

Number of atoms: 1
Number of atomic orbitals: 4
Number of bands in calculation: 7
Bands to converge: all
Number of valence electrons: 7

... initialized

Initializing position-dependent things.

Creating initial wave functions:
  4 bands from LCAO basis set
  3 bands from random numbers

                
                
                
       Br       
                
                
                
                

Positions:
   0 Br     0.000000    0.000000    0.000000

Unit cell:
           periodic     x           y           z      points  spacing
  1. axis:    yes   -1.882500    1.882500    1.882500    12     0.2219
  2. axis:    yes    1.882500   -1.882500    1.882500    12     0.2219
  3. axis:    yes    1.882500    1.882500   -1.882500    12     0.2219

  Lengths:   3.260586   3.260586   3.260586
  Angles:  109.471221 109.471221 109.471221

Effective grid spacing dv^(1/3) = 0.2490

                     log10-error:    total        iterations:
           time      wfs    density  energy       fermi  poisson  magmom
iter:   1  20:53:27  +3.85            0.839485    29              -0.3479
iter:   2  20:53:30  +2.82            0.784480    32              -0.3398
iter:   3  20:53:33  +1.87            0.779806    31              -0.3390
iter:   4  20:53:36  +1.05            0.779427    31              -0.3390
iter:   5  20:53:39  +0.22            0.779398    31              -0.3390
iter:   6  20:53:42  -0.54            0.779396    33              -0.3390
iter:   7  20:53:45  -1.16            0.779395    30              -0.3390
iter:   8  20:53:47  -1.53            0.779395    31              -0.3390
iter:   9  20:53:50  -1.62            0.779395    32              -0.3390
iter:  10  20:53:53  -2.68            0.779395    32              -0.3390
iter:  11  20:53:55  -3.03            0.779395    31              -0.3390
iter:  12  20:53:57  -2.93            0.779395    33              -0.3390
iter:  13  20:53:58  -2.94            0.779395    33              -0.3390
iter:  14  20:54:00  -3.53            0.779395    33              -0.3390
iter:  15  20:54:01  -3.47            0.779395    33              -0.3390
iter:  16  20:54:02  -3.05            0.779395    33              -0.3390
iter:  17  20:54:03  -3.67            0.779395    33              -0.3390
iter:  18  20:54:05  -3.96            0.779395    33              -0.3390
iter:  19  20:54:06  -4.30            0.779395    33              -0.3390
iter:  20  20:54:07  -3.72            0.779395    33              -0.3390
iter:  21  20:54:08  -4.47            0.779395    33              -0.3390
iter:  22  20:54:09  -4.42            0.779395    33              -0.3390
iter:  23  20:54:10  -4.61            0.779395    33              -0.3390
iter:  24  20:54:11  -4.14            0.779395    33              -0.3390
iter:  25  20:54:12  -4.28            0.779395    33              -0.3390
iter:  26  20:54:13  -4.66            0.779395    33              -0.3390
iter:  27  20:54:14  -4.62            0.779395    33              -0.3390
iter:  28  20:54:15  -4.71            0.779395    33              -0.3390
iter:  29  20:54:16  -3.63            0.779395    33              -0.3390
iter:  30  20:54:17  -4.58            0.779395    33              -0.3390
iter:  31  20:54:18  -3.98            0.779395    33              -0.3390
iter:  32  20:54:19  -4.62            0.779395    33              -0.3390
iter:  33  20:54:19  -4.24            0.779395    33              -0.3390
iter:  34  20:54:20  -4.11            0.779395    33              -0.3390
iter:  35  20:54:21  -4.52            0.779395    33              -0.3390
iter:  36  20:54:22  -4.37            0.779395    33              -0.3390
iter:  37  20:54:23  -4.42            0.779395    33              -0.3390
iter:  38  20:54:24  -4.16            0.779395    33              -0.3390
iter:  39  20:54:25  -4.86            0.779395    33              -0.3390
iter:  40  20:54:26  -4.86            0.779395    33              -0.3390
iter:  41  20:54:27  -4.60            0.779395    33              -0.3390
iter:  42  20:54:28  -4.82            0.779395    33              -0.3390
iter:  43  20:54:29  -4.95            0.779395    33              -0.3390
iter:  44  20:54:30  -5.09            0.779395    33              -0.3390
iter:  45  20:54:30  -4.98            0.779395    33              -0.3390
iter:  46  20:54:31  -5.07            0.779395    33              -0.3390
iter:  47  20:54:32  -4.98            0.779395    33              -0.3390
iter:  48  20:54:33  -5.15            0.779395    33              -0.3390
iter:  49  20:54:34  -5.10            0.779395    33              -0.3390
iter:  50  20:54:35  -4.98            0.779395    33              -0.3390
iter:  51  20:54:36  -5.29            0.779395    33              -0.3390
iter:  52  20:54:37  -5.02            0.779395    33              -0.3390
iter:  53  20:54:38  -4.83            0.779395    33              -0.3390
iter:  54  20:54:39  -5.24            0.779395    33              -0.3390
iter:  55  20:54:40  -5.30            0.779395    33              -0.3390
iter:  56  20:54:41  -5.19            0.779395    33              -0.3390
iter:  57  20:54:42  -5.39            0.779395    33              -0.3390
iter:  58  20:54:42  -5.36            0.779395    33              -0.3390
iter:  59  20:54:43  -5.12            0.779395    33              -0.3390
iter:  60  20:54:44  -5.23            0.779395    33              -0.3390
iter:  61  20:54:45  -5.45            0.779395    33              -0.3390
iter:  62  20:54:46  -5.31            0.779395    33              -0.3390
iter:  63  20:54:47  -5.55            0.779395    33              -0.3390
iter:  64  20:54:48  -5.07            0.779395    33              -0.3390
iter:  65  20:54:49  -5.40            0.779395    33              -0.3390
iter:  66  20:54:50  -5.40            0.779395    33              -0.3390
iter:  67  20:54:51  -5.48            0.779395    33              -0.3390
iter:  68  20:54:52  -5.31            0.779395    33              -0.3390
iter:  69  20:54:53  -5.29            0.779395    33              -0.3390
iter:  70  20:54:54  -5.44            0.779395    33              -0.3390
iter:  71  20:54:54  -5.60            0.779395    33              -0.3390
iter:  72  20:54:55  -5.53            0.779395    33              -0.3390
iter:  73  20:54:56  -5.59            0.779395    33              -0.3390
iter:  74  20:54:57  -5.53            0.779395    33              -0.3390
iter:  75  20:54:58  -5.65            0.779395    33              -0.3390
iter:  76  20:54:59  -5.59            0.779395    33              -0.3390
iter:  77  20:55:00  -5.66            0.779395    33              -0.3390
iter:  78  20:55:01  -5.64            0.779395    33              -0.3390
iter:  79  20:55:02  -5.66            0.779395    33              -0.3390
iter:  80  20:55:03  -5.64            0.779395    33              -0.3390
iter:  81  20:55:04  -5.74            0.779395    33              -0.3390
iter:  82  20:55:05  -5.60            0.779395    33              -0.3390
iter:  83  20:55:06  -5.72            0.779395    33              -0.3390
iter:  84  20:55:07  -5.64            0.779395    33              -0.3390
iter:  85  20:55:08  -5.65            0.779395    33              -0.3390
iter:  86  20:55:08  -5.50            0.779395    33              -0.3390
iter:  87  20:55:09  -5.75            0.779395    33              -0.3390
iter:  88  20:55:10  -5.61            0.779395    33              -0.3390
iter:  89  20:55:11  -5.50            0.779395    33              -0.3390
iter:  90  20:55:12  -5.66            0.779395    33              -0.3390
iter:  91  20:55:13  -5.79            0.779395    33              -0.3390
iter:  92  20:55:14  -5.66            0.779395    33              -0.3390
iter:  93  20:55:15  -5.84            0.779395    33              -0.3390
iter:  94  20:55:16  -5.55            0.779395    33              -0.3390
iter:  95  20:55:17  -5.72            0.779395    33              -0.3390
iter:  96  20:55:18  -5.71            0.779395    33              -0.3390
iter:  97  20:55:19  -5.87            0.779395    33              -0.3390
iter:  98  20:55:19  -5.65            0.779395    33              -0.3390
iter:  99  20:55:20  -5.82            0.779395    33              -0.3390
iter: 100  20:55:21  -5.73            0.779395    33              -0.3390
iter: 101  20:55:22  -5.89            0.779395    33              -0.3390
iter: 102  20:55:23  -5.74            0.779395    33              -0.3390
iter: 103  20:55:24  -5.68            0.779395    33              -0.3390
iter: 104  20:55:25  -5.75            0.779395    33              -0.3390
iter: 105  20:55:26  -5.93            0.779395    33              -0.3390
iter: 106  20:55:27  -5.76            0.779395    33              -0.3390
iter: 107  20:55:28  -5.84            0.779395    33              -0.3390
iter: 108  20:55:29  -5.77            0.779395    33              -0.3390
iter: 109  20:55:30  -5.97            0.779395    33              -0.3390
iter: 110  20:55:30  -5.78            0.779395    33              -0.3390
iter: 111  20:55:31  -5.97            0.779395    33              -0.3390
iter: 112  20:55:32  -5.79            0.779395    33              -0.3390
iter: 113  20:55:33  -5.98            0.779395    33              -0.3390
iter: 114  20:55:34  -5.81            0.779395    33              -0.3390
iter: 115  20:55:35  -5.99            0.779395    33              -0.3390
iter: 116  20:55:36  -5.81            0.779395    33              -0.3390
iter: 117  20:55:37  -6.02            0.779395    33              -0.3390
iter: 118  20:55:38  -5.81            0.779395    33              -0.3390
iter: 119  20:55:39  -6.02            0.779395    33              -0.3390
iter: 120  20:55:40  -5.84            0.779395    33              -0.3390
iter: 121  20:55:40  -6.04            0.779395    33              -0.3390
iter: 122  20:55:41  -5.85            0.779395    33              -0.3390
iter: 123  20:55:42  -6.06            0.779395    33              -0.3390
iter: 124  20:55:43  -5.87            0.779395    33              -0.3390
iter: 125  20:55:44  -6.08            0.779395    33              -0.3390
iter: 126  20:55:45  -5.89            0.779395    33              -0.3390
iter: 127  20:55:46  -6.09            0.779395    33              -0.3390
iter: 128  20:55:47  -5.90            0.779395    33              -0.3390
iter: 129  20:55:48  -6.11            0.779395    33              -0.3390
iter: 130  20:55:49  -5.92            0.779395    33              -0.3390
iter: 131  20:55:50  -6.12            0.779395    33              -0.3390
iter: 132  20:55:51  -5.93            0.779395    33              -0.3390
iter: 133  20:55:51  -6.13            0.779395    33              -0.3390
iter: 134  20:55:52  -5.95            0.779395    33              -0.3390
iter: 135  20:55:53  -6.15            0.779395    33              -0.3390
iter: 136  20:55:54  -5.96            0.779395    33              -0.3390
iter: 137  20:55:55  -6.16            0.779395    33              -0.3390
iter: 138  20:55:56  -5.98            0.779395    33              -0.3390
iter: 139  20:55:57  -6.18            0.779395    33              -0.3390
iter: 140  20:55:58  -5.99            0.779395    33              -0.3390
iter: 141  20:55:59  -6.18            0.779395    33              -0.3390
iter: 142  20:56:00  -6.02            0.779395    33              -0.3390
iter: 143  20:56:00  -6.20            0.779395    33              -0.3390
iter: 144  20:56:01  -6.04            0.779395    33              -0.3390
iter: 145  20:56:02  -6.22            0.779395    33              -0.3390
iter: 146  20:56:03  -6.05            0.779395    33              -0.3390
iter: 147  20:56:04  -6.22            0.779395    33              -0.3390
iter: 148  20:56:05  -6.07            0.779395    33              -0.3390
iter: 149  20:56:06  -6.25            0.779395    33              -0.3390
iter: 150  20:56:07  -6.09            0.779395    33              -0.3390
iter: 151  20:56:08  -6.25            0.779395    33              -0.3390
iter: 152  20:56:08  -6.11            0.779395    33              -0.3390
iter: 153  20:56:09  -6.27            0.779395    33              -0.3390
iter: 154  20:56:10  -6.12            0.779395    33              -0.3390
iter: 155  20:56:11  -6.28            0.779395    33              -0.3390
iter: 156  20:56:12  -6.15            0.779395    33              -0.3390
iter: 157  20:56:13  -6.30            0.779395    33              -0.3390
iter: 158  20:56:14  -6.17            0.779395    33              -0.3390
iter: 159  20:56:15  -6.31            0.779395    33              -0.3390
iter: 160  20:56:16  -6.19            0.779395    33              -0.3390
iter: 161  20:56:17  -6.33            0.779395    33              -0.3390
iter: 162  20:56:18  -6.21            0.779395    33              -0.3390
iter: 163  20:56:18  -6.34            0.779395    33              -0.3390
iter: 164  20:56:19  -6.23            0.779395    33              -0.3390
iter: 165  20:56:20  -6.36            0.779395    33              -0.3390
iter: 166  20:56:21  -6.24            0.779395    33              -0.3390
iter: 167  20:56:22  -6.37            0.779395    33              -0.3390
iter: 168  20:56:23  -6.26            0.779395    33              -0.3390
iter: 169  20:56:24  -6.38            0.779395    33              -0.3390
iter: 170  20:56:25  -6.28            0.779395    33              -0.3390
iter: 171  20:56:26  -6.40            0.779395    33              -0.3390
iter: 172  20:56:26  -6.30            0.779395    33              -0.3390
iter: 173  20:56:27  -6.41            0.779395    33              -0.3390
iter: 174  20:56:28  -6.32            0.779395    33              -0.3390
iter: 175  20:56:29  -6.42            0.779395    33              -0.3390
iter: 176  20:56:30  -6.34            0.779395    33              -0.3390
iter: 177  20:56:31  -6.44            0.779395    33              -0.3390
iter: 178  20:56:32  -6.36            0.779395    33              -0.3390
iter: 179  20:56:33  -6.45            0.779395    33              -0.3390
iter: 180  20:56:34  -6.38            0.779395    33              -0.3390
iter: 181  20:56:34  -6.46            0.779395    33              -0.3390
iter: 182  20:56:35  -6.40            0.779395    33              -0.3390
iter: 183  20:56:36  -6.48            0.779395    33              -0.3390
iter: 184  20:56:37  -6.41            0.779395    33              -0.3390
iter: 185  20:56:38  -6.49            0.779395    33              -0.3390
iter: 186  20:56:39  -6.43            0.779395    33              -0.3390
iter: 187  20:56:40  -6.50            0.779395    33              -0.3390
iter: 188  20:56:40  -6.45            0.779395    33              -0.3390
iter: 189  20:56:41  -6.51            0.779395    33              -0.3390
iter: 190  20:56:42  -6.47            0.779395    33              -0.3390
iter: 191  20:56:43  -6.53            0.779395    33              -0.3390
iter: 192  20:56:44  -6.49            0.779395    33              -0.3390
iter: 193  20:56:45  -6.53            0.779395    33              -0.3390
iter: 194  20:56:46  -6.50            0.779395    33              -0.3390
iter: 195  20:56:47  -6.54            0.779395    33              -0.3390
iter: 196  20:56:47  -6.52            0.779395    33              -0.3390
iter: 197  20:56:48  -6.56            0.779395    33              -0.3390
iter: 198  20:56:49  -6.54            0.779395    33              -0.3390
iter: 199  20:56:50  -6.58            0.779395    33              -0.3390
iter: 200  20:56:51  -6.56            0.779395    33              -0.3390
iter: 201  20:56:52  -6.59            0.779395    33              -0.3390
iter: 202  20:56:53  -6.57            0.779395    33              -0.3390
iter: 203  20:56:53  -6.60            0.779395    33              -0.3390
iter: 204  20:56:54  -6.59            0.779395    33              -0.3390
iter: 205  20:56:55  -6.61            0.779395    33              -0.3390
iter: 206  20:56:56  -6.61            0.779395    33              -0.3390
iter: 207  20:56:57  -6.62            0.779395    33              -0.3390
iter: 208  20:56:58  -6.62            0.779395    33              -0.3390
iter: 209  20:56:59  -6.64            0.779395    33              -0.3390
iter: 210  20:56:59  -6.64            0.779395    33              -0.3390
iter: 211  20:57:00  -6.65            0.779395    33              -0.3390
iter: 212  20:57:01  -6.66            0.779395    33              -0.3390
iter: 213  20:57:02  -6.66            0.779395    33              -0.3390
iter: 214  20:57:03  -6.67            0.779395    33              -0.3390
iter: 215  20:57:04  -6.67            0.779395    33              -0.3390
iter: 216  20:57:05  -6.69            0.779395    33              -0.3390
iter: 217  20:57:06  -6.68            0.779395    33              -0.3390
iter: 218  20:57:06  -6.70            0.779395    33              -0.3390
iter: 219  20:57:07  -6.70            0.779395    33              -0.3390
iter: 220  20:57:08  -6.72            0.779395    33              -0.3390
iter: 221  20:57:09  -6.71            0.779395    33              -0.3390
iter: 222  20:57:10  -6.73            0.779395    33              -0.3390
iter: 223  20:57:11  -6.72            0.779395    33              -0.3390
iter: 224  20:57:12  -6.75            0.779395    33              -0.3390
iter: 225  20:57:12  -6.73            0.779395    33              -0.3390
iter: 226  20:57:13  -6.76            0.779395    33              -0.3390
iter: 227  20:57:14  -6.74            0.779395    33              -0.3390
iter: 228  20:57:15  -6.78            0.779395    33              -0.3390
iter: 229  20:57:16  -6.75            0.779395    33              -0.3390
iter: 230  20:57:17  -6.79            0.779395    33              -0.3390
iter: 231  20:57:18  -6.76            0.779395    33              -0.3390
iter: 232  20:57:18  -6.81            0.779395    33              -0.3390
iter: 233  20:57:19  -6.78            0.779395    33              -0.3390
iter: 234  20:57:20  -6.82            0.779395    33              -0.3390
iter: 235  20:57:21  -6.79            0.779395    33              -0.3390
iter: 236  20:57:22  -6.83            0.779395    33              -0.3390
iter: 237  20:57:23  -6.80            0.779395    33              -0.3390
iter: 238  20:57:24  -6.85            0.779395    33              -0.3390
iter: 239  20:57:24  -6.81            0.779395    33              -0.3390
iter: 240  20:57:25  -6.86            0.779395    33              -0.3390
iter: 241  20:57:26  -6.82            0.779395    33              -0.3390
iter: 242  20:57:27  -6.88            0.779395    33              -0.3390
iter: 243  20:57:28  -6.83            0.779395    33              -0.3390
iter: 244  20:57:29  -6.89            0.779395    33              -0.3390
iter: 245  20:57:30  -6.84            0.779395    33              -0.3390
iter: 246  20:57:31  -6.90            0.779395    33              -0.3390
iter: 247  20:57:31  -6.86            0.779395    33              -0.3390
iter: 248  20:57:32  -6.92            0.779395    33              -0.3390
iter: 249  20:57:33  -6.87            0.779395    33              -0.3390
iter: 250  20:57:34  -6.93            0.779395    33              -0.3390
iter: 251  20:57:35  -6.88            0.779395    33              -0.3390
iter: 252  20:57:36  -6.94            0.779395    33              -0.3390
iter: 253  20:57:37  -6.89            0.779395    33              -0.3390
iter: 254  20:57:37  -6.96            0.779395    33              -0.3390
iter: 255  20:57:38  -6.90            0.779395    33              -0.3390
iter: 256  20:57:39  -6.97            0.779395    33              -0.3390
iter: 257  20:57:40  -6.91            0.779395    33              -0.3390
iter: 258  20:57:41  -6.98            0.779395    33              -0.3390
iter: 259  20:57:42  -6.92            0.779395    33              -0.3390
iter: 260  20:57:43  -6.99            0.779395    33              -0.3390
iter: 261  20:57:43  -6.93            0.779395    33              -0.3390
iter: 262  20:57:44  -7.01            0.779395    33              -0.3390
iter: 263  20:57:45  -6.94            0.779395    33              -0.3390
iter: 264  20:57:46  -7.02            0.779395    33              -0.3390
iter: 265  20:57:47  -6.96            0.779395    33              -0.3390
iter: 266  20:57:48  -7.03            0.779395    33              -0.3390
iter: 267  20:57:49  -6.97            0.779395    33              -0.3390
iter: 268  20:57:49  -7.04            0.779395    33              -0.3390
iter: 269  20:57:50  -6.98            0.779395    33              -0.3390
iter: 270  20:57:51  -7.06            0.779395    33              -0.3390
iter: 271  20:57:52  -6.99            0.779395    33              -0.3390
iter: 272  20:57:53  -7.07            0.779395    33              -0.3390
iter: 273  20:57:54  -7.00            0.779395    33              -0.3390
iter: 274  20:57:54  -7.08            0.779395    33              -0.3390
iter: 275  20:57:55  -7.01            0.779395    33              -0.3390
iter: 276  20:57:56  -7.09            0.779395    33              -0.3390
iter: 277  20:57:57  -7.02            0.779395    33              -0.3390
iter: 278  20:57:58  -7.10            0.779395    33              -0.3390
iter: 279  20:57:59  -7.03            0.779395    33              -0.3390
iter: 280  20:57:59  -7.12            0.779395    33              -0.3390
iter: 281  20:58:00  -7.04            0.779395    33              -0.3390
iter: 282  20:58:01  -7.13            0.779395    33              -0.3390
iter: 283  20:58:02  -7.06            0.779395    33              -0.3390
iter: 284  20:58:03  -7.14            0.779395    33              -0.3390
iter: 285  20:58:04  -7.07            0.779395    33              -0.3390
iter: 286  20:58:05  -7.15            0.779395    33              -0.3390
iter: 287  20:58:05  -7.08            0.779395    33              -0.3390
iter: 288  20:58:06  -7.16            0.779395    33              -0.3390
iter: 289  20:58:07  -7.09            0.779395    33              -0.3390
iter: 290  20:58:08  -7.18            0.779395    33              -0.3390
iter: 291  20:58:09  -7.10            0.779395    33              -0.3390
iter: 292  20:58:10  -7.19            0.779395    33              -0.3390
iter: 293  20:58:10  -7.11            0.779395    33              -0.3390
iter: 294  20:58:11  -7.20            0.779395    33              -0.3390
iter: 295  20:58:12  -7.12            0.779395    33              -0.3390
iter: 296  20:58:13  -7.21            0.779395    33              -0.3390
iter: 297  20:58:14  -7.13            0.779395    33              -0.3390
iter: 298  20:58:15  -7.22            0.779395    33              -0.3390
iter: 299  20:58:15  -7.14            0.779395    33              -0.3390
iter: 300  20:58:16  -7.23            0.779395    33              -0.3390
iter: 301  20:58:17  -7.15            0.779395    33              -0.3390
iter: 302  20:58:18  -7.24            0.779395    33              -0.3390
iter: 303  20:58:19  -7.16            0.779395    33              -0.3390
iter: 304  20:58:20  -7.26            0.779395    33              -0.3390
iter: 305  20:58:21  -7.17            0.779395    33              -0.3390
iter: 306  20:58:21  -7.27            0.779395    33              -0.3390
iter: 307  20:58:22  -7.19            0.779395    33              -0.3390
iter: 308  20:58:23  -7.28            0.779395    33              -0.3390
iter: 309  20:58:24  -7.20            0.779395    33              -0.3390
iter: 310  20:58:25  -7.29            0.779395    33              -0.3390
iter: 311  20:58:26  -7.21            0.779395    33              -0.3390
iter: 312  20:58:26  -7.30            0.779395    33              -0.3390
iter: 313  20:58:27  -7.22            0.779395    33              -0.3390
iter: 314  20:58:28  -7.31            0.779395    33              -0.3390
iter: 315  20:58:29  -7.23            0.779395    33              -0.3390
iter: 316  20:58:30  -7.32            0.779395    33              -0.3390
iter: 317  20:58:31  -7.24            0.779395    33              -0.3390
iter: 318  20:58:31  -7.33            0.779395    33              -0.3390
iter: 319  20:58:32  -7.25            0.779395    33              -0.3390
iter: 320  20:58:33  -7.34            0.779395    33              -0.3390
iter: 321  20:58:34  -7.26            0.779395    33              -0.3390
iter: 322  20:58:35  -7.35            0.779395    33              -0.3390
iter: 323  20:58:36  -7.27            0.779395    33              -0.3390
iter: 324  20:58:36  -7.37            0.779395    33              -0.3390
iter: 325  20:58:37  -7.28            0.779395    33              -0.3390
iter: 326  20:58:38  -7.38            0.779395    33              -0.3390
iter: 327  20:58:39  -7.29            0.779395    33              -0.3390
iter: 328  20:58:40  -7.39            0.779395    33              -0.3390
iter: 329  20:58:40  -7.30            0.779395    33              -0.3390
iter: 330  20:58:41  -7.40            0.779395    33              -0.3390
iter: 331  20:58:42  -7.31            0.779395    33              -0.3390
iter: 332  20:58:43  -7.41            0.779395    33              -0.3390

Converged after 332 iterations.

Dipole moment: (0.000000, 0.000000, 0.000000) |e|*Ang

Total magnetic moment: -0.338971
Local magnetic moments:
   0 Br -0.158642

Energy contributions relative to reference atoms: (reference = -70902.247729)

Kinetic:         +2.371157
Potential:       -0.392761
External:        +0.000000
XC:              -1.160641
Entropy (-ST):   -0.003564
Local:           -0.036578
--------------------------
Free energy:     +0.777613
Extrapolated:    +0.779395

Spin contamination: 0.000174 electrons
Fixed Fermi level: 2.61920

Warning: Showing only first 2 kpts
                      Up                     Down
 Kpt  Band  Eigenvalues  Occupancy  Eigenvalues  Occupancy
  0     1      3.42381    0.00000      3.21674    0.00022
  0     2      3.42411    0.00000      3.21756    0.00022
  0     3      3.42411    0.00000      3.21756    0.00022
  0     4     10.44720    0.00000     10.38877    0.00000

  1     1      3.27105    0.00001      3.06772    0.01902
  1     2      3.37597    0.00000      3.16974    0.00212
  1     3      3.37623    0.00000      3.17035    0.00207
  1     4     10.63798    0.00000     10.57647    0.00000


Timing:                              incl.     excl.
-----------------------------------------------------------
Hamiltonian:                         0.572     0.002   0.0% |
 Atomic:                             0.456     0.002   0.0% |
  XC Correction:                     0.454     0.454   0.1% |
 Calculate atomic Hamiltonians:      0.005     0.005   0.0% |
 Communicate:                        0.000     0.000   0.0% |
 Initialize Hamiltonian:             0.000     0.000   0.0% |
 Poisson:                            0.000     0.000   0.0% |
 XC 3D grid:                         0.108     0.108   0.0% |
LCAO initialization:                 1.546     0.047   0.0% |
 LCAO eigensolver:                   0.859     0.014   0.0% |
  Calculate projections:             0.004     0.004   0.0% |
  DenseAtomicCorrection:             0.025     0.025   0.0% |
  Distribute overlap matrix:         0.005     0.005   0.0% |
  Orbital Layouts:                   0.024     0.024   0.0% |
  Potential matrix:                  0.074     0.074   0.0% |
  Sum over cells:                    0.713     0.713   0.1% |
 LCAO to grid:                       0.331     0.331   0.0% |
 Set positions (LCAO WFS):           0.309     0.001   0.0% |
  Basic WFS set positions:           0.002     0.002   0.0% |
  Basis functions set positions:     0.000     0.000   0.0% |
  TCI: Calculate S, T, P:            0.307     0.307   0.0% |
PWDescriptor:                        0.019     0.019   0.0% |
Redistribute:                        0.000     0.000   0.0% |
SCF-cycle:                         737.270   138.385  18.7% |------|
 CG:                               118.676   105.064  14.2% |-----|
  CG: orthonormalize:               13.612     7.837   1.1% |
   CG: overlap:                      3.668     3.668   0.5% |
   CG: overlap2:                     2.107     2.107   0.3% |
 Davidson:                         138.361    86.057  11.6% |----|
  calc. matrices:                   35.070    35.070   4.7% |-|
  diagonalize:                       9.839     9.839   1.3% ||
  rotate_psi:                        7.394     7.394   1.0% |
 Density:                           44.368     0.036   0.0% |
  Atomic density matrices:           3.268     3.268   0.4% |
  Mix:                               3.629     3.629   0.5% |
  Multipole moments:                 0.151     0.151   0.0% |
  Pseudo density:                   37.284    22.132   3.0% ||
   Symmetrize density:              15.152    15.152   2.0% ||
 Hamiltonian:                      172.331     0.365   0.0% |
  Atomic:                          137.943     0.573   0.1% |
   XC Correction:                  137.370   137.370  18.5% |------|
  Calculate atomic Hamiltonians:     1.523     1.523   0.2% |
  Communicate:                       0.005     0.005   0.0% |
  Poisson:                           0.126     0.126   0.0% |
  XC 3D grid:                       32.370    32.370   4.4% |-|
 Orthonormalize:                     0.153     0.011   0.0% |
  Band Layouts:                      0.008     0.003   0.0% |
   Inverse Cholesky:                 0.005     0.005   0.0% |
  calc_s_matrix:                     0.024     0.024   0.0% |
  projections:                       0.089     0.089   0.0% |
  rotate_psi:                        0.021     0.021   0.0% |
 Residuals:                         25.578    25.578   3.4% ||
 Subspace diag:                     99.419     7.141   1.0% |
  Band Layouts:                     11.426     2.105   0.3% |
   Diagonalize:                      7.832     7.832   1.1% |
   Distribute results:               1.488     1.488   0.2% |
  calc_h_matrix:                    66.357    66.357   8.9% |---|
  rotate_psi:                       14.495    14.495   2.0% ||
Set symmetry:                        0.097     0.097   0.0% |
Other:                               2.371     2.371   0.3% |
-----------------------------------------------------------
Total:                                       741.875 100.0%

Date: Thu Feb 11 20:58:44 2021
element =  Br
struct =  bcc
kpts =  (8,8,8)
element =  Br
configuration =  [Ar] 3d10 4s2 4p5 4d0
valence =  ['4s', '4p', '4d']
occupations =  {'4s': 2, '4p': 5, '4d': 0}
nls =  4p
rNum =  600
lmax =  d
*******************************************
Starting confinement parameter optimization
Adjustable parameters and initial values:
  Br_4d.r0 : 4.535343
  Br_4p.r0 : 4.535343
  Br_4s.r0 : 4.535343
  Br_n.r0 : 6.803014
*******************************************

OPT_VAL: 4.535342702008628   4.535342702008628   4.535342702008628   6.803014053012943
VCONF:
  Br_4d : PowerConfinement(r0=4.535343, s=2.000000)
  Br_4p : PowerConfinement(r0=4.535343, s=2.000000)
  Br_4s : PowerConfinement(r0=4.535343, s=2.000000)
  Br_n : PowerConfinement(r0=6.803014, s=2.000000)
RESIDUAL: 0.0

OPT_VAL: 4.735342702008628   4.535342702008628   4.535342702008628   6.803014053012943
VCONF:
  Br_4d : PowerConfinement(r0=4.735343, s=2.000000)
  Br_4p : PowerConfinement(r0=4.535343, s=2.000000)
  Br_4s : PowerConfinement(r0=4.535343, s=2.000000)
  Br_n : PowerConfinement(r0=6.803014, s=2.000000)
RESIDUAL: 0.0

OPT_VAL: 4.535342702008628   4.735342702008628   4.535342702008628   6.803014053012943
VCONF:
  Br_4d : PowerConfinement(r0=4.535343, s=2.000000)
  Br_4p : PowerConfinement(r0=4.735343, s=2.000000)
  Br_4s : PowerConfinement(r0=4.535343, s=2.000000)
  Br_n : PowerConfinement(r0=6.803014, s=2.000000)
RESIDUAL: 0.0

OPT_VAL: 4.535342702008628   4.535342702008628   4.735342702008628   6.803014053012943
VCONF:
  Br_4d : PowerConfinement(r0=4.535343, s=2.000000)
  Br_4p : PowerConfinement(r0=4.535343, s=2.000000)
  Br_4s : PowerConfinement(r0=4.735343, s=2.000000)
  Br_n : PowerConfinement(r0=6.803014, s=2.000000)
RESIDUAL: 0.0

OPT_VAL: 4.535342702008628   4.535342702008628   4.535342702008628   7.003014053012943
VCONF:
  Br_4d : PowerConfinement(r0=4.535343, s=2.000000)
  Br_4p : PowerConfinement(r0=4.535343, s=2.000000)
  Br_4s : PowerConfinement(r0=4.535343, s=2.000000)
  Br_n : PowerConfinement(r0=7.003014, s=2.000000)
RESIDUAL: 0.0

OPT_VAL: 4.5603427020086285   4.535342702008628   4.535342702008628   6.803014053012943
VCONF:
  Br_4d : PowerConfinement(r0=4.560343, s=2.000000)
  Br_4p : PowerConfinement(r0=4.535343, s=2.000000)
  Br_4s : PowerConfinement(r0=4.535343, s=2.000000)
  Br_n : PowerConfinement(r0=6.803014, s=2.000000)
RESIDUAL: 0.0

OPT_VAL: 4.535342702008628   4.5603427020086285   4.535342702008628   6.803014053012943
VCONF:
  Br_4d : PowerConfinement(r0=4.535343, s=2.000000)
  Br_4p : PowerConfinement(r0=4.560343, s=2.000000)
  Br_4s : PowerConfinement(r0=4.535343, s=2.000000)
  Br_n : PowerConfinement(r0=6.803014, s=2.000000)
RESIDUAL: 0.0

OPT_VAL: 4.535342702008628   4.535342702008628   4.5603427020086285   6.803014053012943
VCONF:
  Br_4d : PowerConfinement(r0=4.535343, s=2.000000)
  Br_4p : PowerConfinement(r0=4.535343, s=2.000000)
  Br_4s : PowerConfinement(r0=4.560343, s=2.000000)
  Br_n : PowerConfinement(r0=6.803014, s=2.000000)
RESIDUAL: 0.0

OPT_VAL: 4.535342702008628   4.535342702008628   4.535342702008628   6.828014053012943
VCONF:
  Br_4d : PowerConfinement(r0=4.535343, s=2.000000)
  Br_4p : PowerConfinement(r0=4.535343, s=2.000000)
  Br_4s : PowerConfinement(r0=4.535343, s=2.000000)
  Br_n : PowerConfinement(r0=6.828014, s=2.000000)
RESIDUAL: 0.0

OPT_VAL: 4.540342702008628   4.535342702008628   4.535342702008628   6.803014053012943
VCONF:
  Br_4d : PowerConfinement(r0=4.540343, s=2.000000)
  Br_4p : PowerConfinement(r0=4.535343, s=2.000000)
  Br_4s : PowerConfinement(r0=4.535343, s=2.000000)
  Br_n : PowerConfinement(r0=6.803014, s=2.000000)
RESIDUAL: 0.0

OPT_VAL: 4.535342702008628   4.540342702008628   4.535342702008628   6.803014053012943
VCONF:
  Br_4d : PowerConfinement(r0=4.535343, s=2.000000)
  Br_4p : PowerConfinement(r0=4.540343, s=2.000000)
  Br_4s : PowerConfinement(r0=4.535343, s=2.000000)
  Br_n : PowerConfinement(r0=6.803014, s=2.000000)
RESIDUAL: 0.0

OPT_VAL: 4.535342702008628   4.535342702008628   4.540342702008628   6.803014053012943
VCONF:
  Br_4d : PowerConfinement(r0=4.535343, s=2.000000)
  Br_4p : PowerConfinement(r0=4.535343, s=2.000000)
  Br_4s : PowerConfinement(r0=4.540343, s=2.000000)
  Br_n : PowerConfinement(r0=6.803014, s=2.000000)
RESIDUAL: 0.0

OPT_VAL: 4.535342702008628   4.535342702008628   4.535342702008628   6.8080140530129425
VCONF:
  Br_4d : PowerConfinement(r0=4.535343, s=2.000000)
  Br_4p : PowerConfinement(r0=4.535343, s=2.000000)
  Br_4s : PowerConfinement(r0=4.535343, s=2.000000)
  Br_n : PowerConfinement(r0=6.808014, s=2.000000)
RESIDUAL: 0.0

*******************************************
Optimization finished after 13 iterations
Adjustable parameters and final values:
  Br_4d.r0 : 4.535343
  Br_4p.r0 : 4.535343
  Br_4s.r0 : 4.535343
  Br_n.r0 : 6.803014
*******************************************

VCONF:
  Br_4d : PowerConfinement(r0=4.535343, s=2.000000)
  Br_4p : PowerConfinement(r0=4.535343, s=2.000000)
  Br_4s : PowerConfinement(r0=4.535343, s=2.000000)
  Br_n : PowerConfinement(r0=6.803014, s=2.000000)
