
     Program PWSCF v.6.0 (svn rev. 13079) starts on 25Feb2021 at 20:55: 7 

     This program is part of the open-source Quantum ESPRESSO suite
     for quantum simulation of materials; please cite
         "P. Giannozzi et al., J. Phys.:Condens. Matter 21 395502 (2009);
          URL http://www.quantum-espresso.org", 
     in publications or presentations arising from this work. More details at
     http://www.quantum-espresso.org/quote

     Parallel version (MPI), running on     1 processors
     Reading input from espresso.pwi
Warning: card &IONS ignored
Warning: card / ignored
Warning: card &CELL ignored
Warning: card / ignored

     Current dimensions of program PWSCF are:
     Max number of different atomic species (ntypx) = 10
     Max number of k-points (npk) =  40000
     Max angular momentum in pseudopotentials (lmaxx) =  3
     Message from routine input:
     WARNING: "startingwfc" set to atomic+random may spoil restart

     Atomic positions and unit cell read from directory:
     ./pwscf.save/


     IMPORTANT: XC functional enforced from input :
     Exchange-correlation      = PBE ( 1  4  3  4 0 0)
     Any further DFT definition will be discarded
     Please, verify this is what you really want


     Subspace diagonalization in iterative solution of the eigenvalue problem:
     a serial algorithm will be used


     G-vector sticks info
     --------------------
     sticks:   dense  smooth     PW     G-vecs:    dense   smooth      PW
     Sum         579     467    151                 8853     6363    1157



     bravais-lattice index     =            0
     lattice parameter (alat)  =       6.2336  a.u.
     unit-cell volume          =     186.4659 (a.u.)^3
     number of atoms/cell      =            1
     number of atomic types    =            1
     number of electrons       =        14.00
     number of Kohn-Sham states=           11
     kinetic-energy cutoff     =      40.0000  Ry
     charge density cutoff     =     200.0000  Ry
     Exchange-correlation      = PBE ( 1  4  3  4 0 0)

     celldm(1)=   6.233622  celldm(2)=   0.000000  celldm(3)=   0.000000
     celldm(4)=   0.000000  celldm(5)=   0.000000  celldm(6)=   0.000000

     crystal axes: (cart. coord. in units of alat)
               a(1) = (  -0.577350   0.577350   0.577350 )  
               a(2) = (   0.577350  -0.577350   0.577350 )  
               a(3) = (   0.577350   0.577350  -0.577350 )  

     reciprocal axes: (cart. coord. in units 2 pi/alat)
               b(1) = (  0.000000  0.866025  0.866025 )  
               b(2) = (  0.866025  0.000000  0.866025 )  
               b(3) = (  0.866025  0.866025  0.000000 )  


     PseudoPot. # 1 for Sn read from file:
     /home/inukai/tango/tests/1element/qe_fit_v2_Sn/../pseudo/sn_pbe_v1.4.uspp.F.UPF
     MD5 check sum: 469debedee59599fedebd795477fea03
     Pseudo is Ultrasoft + core correction, Zval = 14.0
     Generated by new atomic code, or converted to UPF format
     Using radial grid of  891 points,  6 beta functions with: 
                l(1) =   0
                l(2) =   0
                l(3) =   1
                l(4) =   1
                l(5) =   2
                l(6) =   2
     Q(r) pseudized with  8 coefficients,  rinner =    1.350   1.350   1.350
                                                       1.350   1.350

     atomic species   valence    mass     pseudopotential
        Sn            14.00   118.71000     Sn( 1.00)

     48 Sym. Ops., with inversion, found


                                    s                        frac. trans.

      isym =  1     identity                                     

 cryst.   s( 1) = (     1          0          0      )
                  (     0          1          0      )
                  (     0          0          1      )

 cart.    s( 1) = (  1.0000000  0.0000000  0.0000000 )
                  (  0.0000000  1.0000000  0.0000000 )
                  (  0.0000000  0.0000000  1.0000000 )


      isym =  2     180 deg rotation - cart. axis [0,0,1]        

 cryst.   s( 2) = (     0          1          0      )
                  (     1          0          0      )
                  (    -1         -1         -1      )

 cart.    s( 2) = ( -1.0000000  0.0000000  0.0000000 )
                  (  0.0000000 -1.0000000  0.0000000 )
                  (  0.0000000  0.0000000  1.0000000 )


      isym =  3     180 deg rotation - cart. axis [0,1,0]        

 cryst.   s( 3) = (     0          0          1      )
                  (    -1         -1         -1      )
                  (     1          0          0      )

 cart.    s( 3) = ( -1.0000000  0.0000000  0.0000000 )
                  (  0.0000000  1.0000000  0.0000000 )
                  (  0.0000000  0.0000000 -1.0000000 )


      isym =  4     180 deg rotation - cart. axis [1,0,0]        

 cryst.   s( 4) = (    -1         -1         -1      )
                  (     0          0          1      )
                  (     0          1          0      )

 cart.    s( 4) = (  1.0000000  0.0000000  0.0000000 )
                  (  0.0000000 -1.0000000  0.0000000 )
                  (  0.0000000  0.0000000 -1.0000000 )


      isym =  5     180 deg rotation - cart. axis [1,1,0]        

 cryst.   s( 5) = (    -1          0          0      )
                  (     0         -1          0      )
                  (     1          1          1      )

 cart.    s( 5) = (  0.0000000  1.0000000  0.0000000 )
                  (  1.0000000  0.0000000  0.0000000 )
                  (  0.0000000  0.0000000 -1.0000000 )


      isym =  6     180 deg rotation - cart. axis [1,-1,0]       

 cryst.   s( 6) = (     0         -1          0      )
                  (    -1          0          0      )
                  (     0          0         -1      )

 cart.    s( 6) = (  0.0000000 -1.0000000  0.0000000 )
                  ( -1.0000000  0.0000000  0.0000000 )
                  (  0.0000000  0.0000000 -1.0000000 )


      isym =  7      90 deg rotation - cart. axis [0,0,-1]       

 cryst.   s( 7) = (     1          1          1      )
                  (     0          0         -1      )
                  (    -1          0          0      )

 cart.    s( 7) = (  0.0000000  1.0000000  0.0000000 )
                  ( -1.0000000  0.0000000  0.0000000 )
                  (  0.0000000  0.0000000  1.0000000 )


      isym =  8      90 deg rotation - cart. axis [0,0,1]        

 cryst.   s( 8) = (     0          0         -1      )
                  (     1          1          1      )
                  (     0         -1          0      )

 cart.    s( 8) = (  0.0000000 -1.0000000  0.0000000 )
                  (  1.0000000  0.0000000  0.0000000 )
                  (  0.0000000  0.0000000  1.0000000 )


      isym =  9     180 deg rotation - cart. axis [1,0,1]        

 cryst.   s( 9) = (    -1          0          0      )
                  (     1          1          1      )
                  (     0          0         -1      )

 cart.    s( 9) = (  0.0000000  0.0000000  1.0000000 )
                  (  0.0000000 -1.0000000  0.0000000 )
                  (  1.0000000  0.0000000  0.0000000 )


      isym = 10     180 deg rotation - cart. axis [-1,0,1]       

 cryst.   s(10) = (     0          0         -1      )
                  (     0         -1          0      )
                  (    -1          0          0      )

 cart.    s(10) = (  0.0000000  0.0000000 -1.0000000 )
                  (  0.0000000 -1.0000000  0.0000000 )
                  ( -1.0000000  0.0000000  0.0000000 )


      isym = 11      90 deg rotation - cart. axis [0,1,0]        

 cryst.   s(11) = (     1          1          1      )
                  (    -1          0          0      )
                  (     0         -1          0      )

 cart.    s(11) = (  0.0000000  0.0000000  1.0000000 )
                  (  0.0000000  1.0000000  0.0000000 )
                  ( -1.0000000  0.0000000  0.0000000 )


      isym = 12      90 deg rotation - cart. axis [0,-1,0]       

 cryst.   s(12) = (     0         -1          0      )
                  (     0          0         -1      )
                  (     1          1          1      )

 cart.    s(12) = (  0.0000000  0.0000000 -1.0000000 )
                  (  0.0000000  1.0000000  0.0000000 )
                  (  1.0000000  0.0000000  0.0000000 )


      isym = 13     180 deg rotation - cart. axis [0,1,1]        

 cryst.   s(13) = (     1          1          1      )
                  (     0         -1          0      )
                  (     0          0         -1      )

 cart.    s(13) = ( -1.0000000  0.0000000  0.0000000 )
                  (  0.0000000  0.0000000  1.0000000 )
                  (  0.0000000  1.0000000  0.0000000 )


      isym = 14     180 deg rotation - cart. axis [0,1,-1]       

 cryst.   s(14) = (    -1          0          0      )
                  (     0          0         -1      )
                  (     0         -1          0      )

 cart.    s(14) = ( -1.0000000  0.0000000  0.0000000 )
                  (  0.0000000  0.0000000 -1.0000000 )
                  (  0.0000000 -1.0000000  0.0000000 )


      isym = 15      90 deg rotation - cart. axis [-1,0,0]       

 cryst.   s(15) = (     0         -1          0      )
                  (     1          1          1      )
                  (    -1          0          0      )

 cart.    s(15) = (  1.0000000  0.0000000  0.0000000 )
                  (  0.0000000  0.0000000  1.0000000 )
                  (  0.0000000 -1.0000000  0.0000000 )


      isym = 16      90 deg rotation - cart. axis [1,0,0]        

 cryst.   s(16) = (     0          0         -1      )
                  (    -1          0          0      )
                  (     1          1          1      )

 cart.    s(16) = (  1.0000000  0.0000000  0.0000000 )
                  (  0.0000000  0.0000000 -1.0000000 )
                  (  0.0000000  1.0000000  0.0000000 )


      isym = 17     120 deg rotation - cart. axis [-1,-1,-1]     

 cryst.   s(17) = (     0          0          1      )
                  (     1          0          0      )
                  (     0          1          0      )

 cart.    s(17) = (  0.0000000  1.0000000  0.0000000 )
                  (  0.0000000  0.0000000  1.0000000 )
                  (  1.0000000  0.0000000  0.0000000 )


      isym = 18     120 deg rotation - cart. axis [-1,1,1]       

 cryst.   s(18) = (     1          0          0      )
                  (     0          0          1      )
                  (    -1         -1         -1      )

 cart.    s(18) = (  0.0000000 -1.0000000  0.0000000 )
                  (  0.0000000  0.0000000  1.0000000 )
                  ( -1.0000000  0.0000000  0.0000000 )


      isym = 19     120 deg rotation - cart. axis [1,1,-1]       

 cryst.   s(19) = (     0          1          0      )
                  (    -1         -1         -1      )
                  (     0          0          1      )

 cart.    s(19) = (  0.0000000  1.0000000  0.0000000 )
                  (  0.0000000  0.0000000 -1.0000000 )
                  ( -1.0000000  0.0000000  0.0000000 )


      isym = 20     120 deg rotation - cart. axis [1,-1,1]       

 cryst.   s(20) = (    -1         -1         -1      )
                  (     0          1          0      )
                  (     1          0          0      )

 cart.    s(20) = (  0.0000000 -1.0000000  0.0000000 )
                  (  0.0000000  0.0000000 -1.0000000 )
                  (  1.0000000  0.0000000  0.0000000 )


      isym = 21     120 deg rotation - cart. axis [1,1,1]        

 cryst.   s(21) = (     0          1          0      )
                  (     0          0          1      )
                  (     1          0          0      )

 cart.    s(21) = (  0.0000000  0.0000000  1.0000000 )
                  (  1.0000000  0.0000000  0.0000000 )
                  (  0.0000000  1.0000000  0.0000000 )


      isym = 22     120 deg rotation - cart. axis [-1,1,-1]      

 cryst.   s(22) = (     0          0          1      )
                  (     0          1          0      )
                  (    -1         -1         -1      )

 cart.    s(22) = (  0.0000000  0.0000000  1.0000000 )
                  ( -1.0000000  0.0000000  0.0000000 )
                  (  0.0000000 -1.0000000  0.0000000 )


      isym = 23     120 deg rotation - cart. axis [1,-1,-1]      

 cryst.   s(23) = (     1          0          0      )
                  (    -1         -1         -1      )
                  (     0          1          0      )

 cart.    s(23) = (  0.0000000  0.0000000 -1.0000000 )
                  ( -1.0000000  0.0000000  0.0000000 )
                  (  0.0000000  1.0000000  0.0000000 )


      isym = 24     120 deg rotation - cart. axis [-1,-1,1]      

 cryst.   s(24) = (    -1         -1         -1      )
                  (     1          0          0      )
                  (     0          0          1      )

 cart.    s(24) = (  0.0000000  0.0000000 -1.0000000 )
                  (  1.0000000  0.0000000  0.0000000 )
                  (  0.0000000 -1.0000000  0.0000000 )


      isym = 25     inversion                                    

 cryst.   s(25) = (    -1          0          0      )
                  (     0         -1          0      )
                  (     0          0         -1      )

 cart.    s(25) = ( -1.0000000  0.0000000  0.0000000 )
                  (  0.0000000 -1.0000000  0.0000000 )
                  (  0.0000000  0.0000000 -1.0000000 )


      isym = 26     inv. 180 deg rotation - cart. axis [0,0,1]   

 cryst.   s(26) = (     0         -1          0      )
                  (    -1          0          0      )
                  (     1          1          1      )

 cart.    s(26) = (  1.0000000  0.0000000  0.0000000 )
                  (  0.0000000  1.0000000  0.0000000 )
                  (  0.0000000  0.0000000 -1.0000000 )


      isym = 27     inv. 180 deg rotation - cart. axis [0,1,0]   

 cryst.   s(27) = (     0          0         -1      )
                  (     1          1          1      )
                  (    -1          0          0      )

 cart.    s(27) = (  1.0000000  0.0000000  0.0000000 )
                  (  0.0000000 -1.0000000  0.0000000 )
                  (  0.0000000  0.0000000  1.0000000 )


      isym = 28     inv. 180 deg rotation - cart. axis [1,0,0]   

 cryst.   s(28) = (     1          1          1      )
                  (     0          0         -1      )
                  (     0         -1          0      )

 cart.    s(28) = ( -1.0000000  0.0000000  0.0000000 )
                  (  0.0000000  1.0000000  0.0000000 )
                  (  0.0000000  0.0000000  1.0000000 )


      isym = 29     inv. 180 deg rotation - cart. axis [1,1,0]   

 cryst.   s(29) = (     1          0          0      )
                  (     0          1          0      )
                  (    -1         -1         -1      )

 cart.    s(29) = (  0.0000000 -1.0000000  0.0000000 )
                  ( -1.0000000  0.0000000  0.0000000 )
                  (  0.0000000  0.0000000  1.0000000 )


      isym = 30     inv. 180 deg rotation - cart. axis [1,-1,0]  

 cryst.   s(30) = (     0          1          0      )
                  (     1          0          0      )
                  (     0          0          1      )

 cart.    s(30) = (  0.0000000  1.0000000  0.0000000 )
                  (  1.0000000  0.0000000  0.0000000 )
                  (  0.0000000  0.0000000  1.0000000 )


      isym = 31     inv.  90 deg rotation - cart. axis [0,0,-1]  

 cryst.   s(31) = (    -1         -1         -1      )
                  (     0          0          1      )
                  (     1          0          0      )

 cart.    s(31) = (  0.0000000 -1.0000000  0.0000000 )
                  (  1.0000000  0.0000000  0.0000000 )
                  (  0.0000000  0.0000000 -1.0000000 )


      isym = 32     inv.  90 deg rotation - cart. axis [0,0,1]   

 cryst.   s(32) = (     0          0          1      )
                  (    -1         -1         -1      )
                  (     0          1          0      )

 cart.    s(32) = (  0.0000000  1.0000000  0.0000000 )
                  ( -1.0000000  0.0000000  0.0000000 )
                  (  0.0000000  0.0000000 -1.0000000 )


      isym = 33     inv. 180 deg rotation - cart. axis [1,0,1]   

 cryst.   s(33) = (     1          0          0      )
                  (    -1         -1         -1      )
                  (     0          0          1      )

 cart.    s(33) = (  0.0000000  0.0000000 -1.0000000 )
                  (  0.0000000  1.0000000  0.0000000 )
                  ( -1.0000000  0.0000000  0.0000000 )


      isym = 34     inv. 180 deg rotation - cart. axis [-1,0,1]  

 cryst.   s(34) = (     0          0          1      )
                  (     0          1          0      )
                  (     1          0          0      )

 cart.    s(34) = (  0.0000000  0.0000000  1.0000000 )
                  (  0.0000000  1.0000000  0.0000000 )
                  (  1.0000000  0.0000000  0.0000000 )


      isym = 35     inv.  90 deg rotation - cart. axis [0,1,0]   

 cryst.   s(35) = (    -1         -1         -1      )
                  (     1          0          0      )
                  (     0          1          0      )

 cart.    s(35) = (  0.0000000  0.0000000 -1.0000000 )
                  (  0.0000000 -1.0000000  0.0000000 )
                  (  1.0000000  0.0000000  0.0000000 )


      isym = 36     inv.  90 deg rotation - cart. axis [0,-1,0]  

 cryst.   s(36) = (     0          1          0      )
                  (     0          0          1      )
                  (    -1         -1         -1      )

 cart.    s(36) = (  0.0000000  0.0000000  1.0000000 )
                  (  0.0000000 -1.0000000  0.0000000 )
                  ( -1.0000000  0.0000000  0.0000000 )


      isym = 37     inv. 180 deg rotation - cart. axis [0,1,1]   

 cryst.   s(37) = (    -1         -1         -1      )
                  (     0          1          0      )
                  (     0          0          1      )

 cart.    s(37) = (  1.0000000  0.0000000  0.0000000 )
                  (  0.0000000  0.0000000 -1.0000000 )
                  (  0.0000000 -1.0000000  0.0000000 )


      isym = 38     inv. 180 deg rotation - cart. axis [0,1,-1]  

 cryst.   s(38) = (     1          0          0      )
                  (     0          0          1      )
                  (     0          1          0      )

 cart.    s(38) = (  1.0000000  0.0000000  0.0000000 )
                  (  0.0000000  0.0000000  1.0000000 )
                  (  0.0000000  1.0000000  0.0000000 )


      isym = 39     inv.  90 deg rotation - cart. axis [-1,0,0]  

 cryst.   s(39) = (     0          1          0      )
                  (    -1         -1         -1      )
                  (     1          0          0      )

 cart.    s(39) = ( -1.0000000  0.0000000  0.0000000 )
                  (  0.0000000  0.0000000 -1.0000000 )
                  (  0.0000000  1.0000000  0.0000000 )


      isym = 40     inv.  90 deg rotation - cart. axis [1,0,0]   

 cryst.   s(40) = (     0          0          1      )
                  (     1          0          0      )
                  (    -1         -1         -1      )

 cart.    s(40) = ( -1.0000000  0.0000000  0.0000000 )
                  (  0.0000000  0.0000000  1.0000000 )
                  (  0.0000000 -1.0000000  0.0000000 )


      isym = 41     inv. 120 deg rotation - cart. axis [-1,-1,-1]

 cryst.   s(41) = (     0          0         -1      )
                  (    -1          0          0      )
                  (     0         -1          0      )

 cart.    s(41) = (  0.0000000 -1.0000000  0.0000000 )
                  (  0.0000000  0.0000000 -1.0000000 )
                  ( -1.0000000  0.0000000  0.0000000 )


      isym = 42     inv. 120 deg rotation - cart. axis [-1,1,1]  

 cryst.   s(42) = (    -1          0          0      )
                  (     0          0         -1      )
                  (     1          1          1      )

 cart.    s(42) = (  0.0000000  1.0000000  0.0000000 )
                  (  0.0000000  0.0000000 -1.0000000 )
                  (  1.0000000  0.0000000  0.0000000 )


      isym = 43     inv. 120 deg rotation - cart. axis [1,1,-1]  

 cryst.   s(43) = (     0         -1          0      )
                  (     1          1          1      )
                  (     0          0         -1      )

 cart.    s(43) = (  0.0000000 -1.0000000  0.0000000 )
                  (  0.0000000  0.0000000  1.0000000 )
                  (  1.0000000  0.0000000  0.0000000 )


      isym = 44     inv. 120 deg rotation - cart. axis [1,-1,1]  

 cryst.   s(44) = (     1          1          1      )
                  (     0         -1          0      )
                  (    -1          0          0      )

 cart.    s(44) = (  0.0000000  1.0000000  0.0000000 )
                  (  0.0000000  0.0000000  1.0000000 )
                  ( -1.0000000  0.0000000  0.0000000 )


      isym = 45     inv. 120 deg rotation - cart. axis [1,1,1]   

 cryst.   s(45) = (     0         -1          0      )
                  (     0          0         -1      )
                  (    -1          0          0      )

 cart.    s(45) = (  0.0000000  0.0000000 -1.0000000 )
                  ( -1.0000000  0.0000000  0.0000000 )
                  (  0.0000000 -1.0000000  0.0000000 )


      isym = 46     inv. 120 deg rotation - cart. axis [-1,1,-1] 

 cryst.   s(46) = (     0          0         -1      )
                  (     0         -1          0      )
                  (     1          1          1      )

 cart.    s(46) = (  0.0000000  0.0000000 -1.0000000 )
                  (  1.0000000  0.0000000  0.0000000 )
                  (  0.0000000  1.0000000  0.0000000 )


      isym = 47     inv. 120 deg rotation - cart. axis [1,-1,-1] 

 cryst.   s(47) = (    -1          0          0      )
                  (     1          1          1      )
                  (     0         -1          0      )

 cart.    s(47) = (  0.0000000  0.0000000  1.0000000 )
                  (  1.0000000  0.0000000  0.0000000 )
                  (  0.0000000 -1.0000000  0.0000000 )


      isym = 48     inv. 120 deg rotation - cart. axis [-1,-1,1] 

 cryst.   s(48) = (     1          1          1      )
                  (    -1          0          0      )
                  (     0          0         -1      )

 cart.    s(48) = (  0.0000000  0.0000000  1.0000000 )
                  ( -1.0000000  0.0000000  0.0000000 )
                  (  0.0000000  1.0000000  0.0000000 )


   Cartesian axes

     site n.     atom                  positions (alat units)
         1           Sn  tau(   1) = (   0.0000000   0.0000000   0.0000000  )

   Crystallographic axes

     site n.     atom                  positions (cryst. coord.)
         1           Sn  tau(   1) = (  0.0000000  0.0000000  0.0000000  )

     number of k points=    50  gaussian smearing, width (Ry)=  0.0010
                       cart. coord. in units 2pi/alat
        k(    1) = (   0.0000000   0.0000000   0.0000000), wk =   0.0400000
        k(    2) = (   0.0000000   0.0618590   0.0000000), wk =   0.0400000
        k(    3) = (   0.0000000   0.1237179   0.0000000), wk =   0.0400000
        k(    4) = (   0.0000000   0.1855769   0.0000000), wk =   0.0400000
        k(    5) = (   0.0000000   0.2474358   0.0000000), wk =   0.0400000
        k(    6) = (   0.0000000   0.3092948   0.0000000), wk =   0.0400000
        k(    7) = (   0.0000000   0.3711537   0.0000000), wk =   0.0400000
        k(    8) = (   0.0000000   0.4330127   0.0000000), wk =   0.0400000
        k(    9) = (   0.0000000   0.4948717   0.0000000), wk =   0.0400000
        k(   10) = (   0.0000000   0.5567306   0.0000000), wk =   0.0400000
        k(   11) = (   0.0000000   0.6185896   0.0000000), wk =   0.0400000
        k(   12) = (   0.0000000   0.6804485   0.0000000), wk =   0.0400000
        k(   13) = (   0.0000000   0.7423075   0.0000000), wk =   0.0400000
        k(   14) = (   0.0000000   0.8041664   0.0000000), wk =   0.0400000
        k(   15) = (   0.0000000   0.8660254   0.0000000), wk =   0.0400000
        k(   16) = (   0.0433013   0.8227241   0.0000000), wk =   0.0400000
        k(   17) = (   0.0866025   0.7794229   0.0000000), wk =   0.0400000
        k(   18) = (   0.1299038   0.7361216   0.0000000), wk =   0.0400000
        k(   19) = (   0.1732051   0.6928203   0.0000000), wk =   0.0400000
        k(   20) = (   0.2165064   0.6495191   0.0000000), wk =   0.0400000
        k(   21) = (   0.2598076   0.6062178   0.0000000), wk =   0.0400000
        k(   22) = (   0.3031089   0.5629165   0.0000000), wk =   0.0400000
        k(   23) = (   0.3464102   0.5196152   0.0000000), wk =   0.0400000
        k(   24) = (   0.3897114   0.4763140   0.0000000), wk =   0.0400000
        k(   25) = (   0.4330127   0.4330127   0.0000000), wk =   0.0400000
        k(   26) = (   0.3936479   0.3936479   0.0000000), wk =   0.0400000
        k(   27) = (   0.3542831   0.3542831   0.0000000), wk =   0.0400000
        k(   28) = (   0.3149183   0.3149183   0.0000000), wk =   0.0400000
        k(   29) = (   0.2755535   0.2755535   0.0000000), wk =   0.0400000
        k(   30) = (   0.2361887   0.2361887   0.0000000), wk =   0.0400000
        k(   31) = (   0.1968240   0.1968240   0.0000000), wk =   0.0400000
        k(   32) = (   0.1574592   0.1574592   0.0000000), wk =   0.0400000
        k(   33) = (   0.1180944   0.1180944   0.0000000), wk =   0.0400000
        k(   34) = (   0.0787296   0.0787296   0.0000000), wk =   0.0400000
        k(   35) = (   0.0393648   0.0393648   0.0000000), wk =   0.0400000
        k(   36) = (   0.0000000   0.0000000   0.0000000), wk =   0.0400000
        k(   37) = (   0.0309295   0.0309295   0.0309295), wk =   0.0400000
        k(   38) = (   0.0618590   0.0618590   0.0618590), wk =   0.0400000
        k(   39) = (   0.0927884   0.0927884   0.0927884), wk =   0.0400000
        k(   40) = (   0.1237179   0.1237179   0.1237179), wk =   0.0400000
        k(   41) = (   0.1546474   0.1546474   0.1546474), wk =   0.0400000
        k(   42) = (   0.1855769   0.1855769   0.1855769), wk =   0.0400000
        k(   43) = (   0.2165064   0.2165064   0.2165064), wk =   0.0400000
        k(   44) = (   0.2474358   0.2474358   0.2474358), wk =   0.0400000
        k(   45) = (   0.2783653   0.2783653   0.2783653), wk =   0.0400000
        k(   46) = (   0.3092948   0.3092948   0.3092948), wk =   0.0400000
        k(   47) = (   0.3402243   0.3402243   0.3402243), wk =   0.0400000
        k(   48) = (   0.3711537   0.3711537   0.3711537), wk =   0.0400000
        k(   49) = (   0.4020832   0.4020832   0.4020832), wk =   0.0400000
        k(   50) = (   0.4330127   0.4330127   0.4330127), wk =   0.0400000

                       cryst. coord.
        k(    1) = (   0.0000000   0.0000000   0.0000000), wk =   0.0400000
        k(    2) = (   0.0357143  -0.0357143   0.0357143), wk =   0.0400000
        k(    3) = (   0.0714286  -0.0714286   0.0714286), wk =   0.0400000
        k(    4) = (   0.1071429  -0.1071429   0.1071429), wk =   0.0400000
        k(    5) = (   0.1428571  -0.1428571   0.1428571), wk =   0.0400000
        k(    6) = (   0.1785714  -0.1785714   0.1785714), wk =   0.0400000
        k(    7) = (   0.2142857  -0.2142857   0.2142857), wk =   0.0400000
        k(    8) = (   0.2500000  -0.2500000   0.2500000), wk =   0.0400000
        k(    9) = (   0.2857143  -0.2857143   0.2857143), wk =   0.0400000
        k(   10) = (   0.3214286  -0.3214286   0.3214286), wk =   0.0400000
        k(   11) = (   0.3571429  -0.3571429   0.3571429), wk =   0.0400000
        k(   12) = (   0.3928571  -0.3928571   0.3928571), wk =   0.0400000
        k(   13) = (   0.4285714  -0.4285714   0.4285714), wk =   0.0400000
        k(   14) = (   0.4642857  -0.4642857   0.4642857), wk =   0.0400000
        k(   15) = (   0.5000000  -0.5000000   0.5000000), wk =   0.0400000
        k(   16) = (   0.4500000  -0.4500000   0.5000000), wk =   0.0400000
        k(   17) = (   0.4000000  -0.4000000   0.5000000), wk =   0.0400000
        k(   18) = (   0.3500000  -0.3500000   0.5000000), wk =   0.0400000
        k(   19) = (   0.3000000  -0.3000000   0.5000000), wk =   0.0400000
        k(   20) = (   0.2500000  -0.2500000   0.5000000), wk =   0.0400000
        k(   21) = (   0.2000000  -0.2000000   0.5000000), wk =   0.0400000
        k(   22) = (   0.1500000  -0.1500000   0.5000000), wk =   0.0400000
        k(   23) = (   0.1000000  -0.1000000   0.5000000), wk =   0.0400000
        k(   24) = (   0.0500000  -0.0500000   0.5000000), wk =   0.0400000
        k(   25) = (   0.0000000   0.0000000   0.5000000), wk =   0.0400000
        k(   26) = (   0.0000000   0.0000000   0.4545455), wk =   0.0400000
        k(   27) = (   0.0000000   0.0000000   0.4090909), wk =   0.0400000
        k(   28) = (   0.0000000   0.0000000   0.3636364), wk =   0.0400000
        k(   29) = (   0.0000000   0.0000000   0.3181818), wk =   0.0400000
        k(   30) = (   0.0000000   0.0000000   0.2727273), wk =   0.0400000
        k(   31) = (   0.0000000   0.0000000   0.2272727), wk =   0.0400000
        k(   32) = (   0.0000000   0.0000000   0.1818182), wk =   0.0400000
        k(   33) = (   0.0000000   0.0000000   0.1363636), wk =   0.0400000
        k(   34) = (   0.0000000   0.0000000   0.0909091), wk =   0.0400000
        k(   35) = (   0.0000000   0.0000000   0.0454545), wk =   0.0400000
        k(   36) = (   0.0000000   0.0000000   0.0000000), wk =   0.0400000
        k(   37) = (   0.0178571   0.0178571   0.0178571), wk =   0.0400000
        k(   38) = (   0.0357143   0.0357143   0.0357143), wk =   0.0400000
        k(   39) = (   0.0535714   0.0535714   0.0535714), wk =   0.0400000
        k(   40) = (   0.0714286   0.0714286   0.0714286), wk =   0.0400000
        k(   41) = (   0.0892857   0.0892857   0.0892857), wk =   0.0400000
        k(   42) = (   0.1071429   0.1071429   0.1071429), wk =   0.0400000
        k(   43) = (   0.1250000   0.1250000   0.1250000), wk =   0.0400000
        k(   44) = (   0.1428571   0.1428571   0.1428571), wk =   0.0400000
        k(   45) = (   0.1607143   0.1607143   0.1607143), wk =   0.0400000
        k(   46) = (   0.1785714   0.1785714   0.1785714), wk =   0.0400000
        k(   47) = (   0.1964286   0.1964286   0.1964286), wk =   0.0400000
        k(   48) = (   0.2142857   0.2142857   0.2142857), wk =   0.0400000
        k(   49) = (   0.2321429   0.2321429   0.2321429), wk =   0.0400000
        k(   50) = (   0.2500000   0.2500000   0.2500000), wk =   0.0400000

     Dense  grid:     8853 G-vectors     FFT dimensions: (  30,  30,  30)

     Smooth grid:     6363 G-vectors     FFT dimensions: (  25,  25,  25)

     Estimated max dynamical RAM per process >      11.05Mb

     The potential is recalculated from file :
     ./pwscf.save/charge-density.dat

     Starting wfc are    9 randomized atomic wfcs +    2 random wfc

     Band Structure Calculation
     Davidson diagonalization with overlap

     Computing kpt #:     1
     total cpu time spent up to now is        0.8 secs

     Computing kpt #:     2
     total cpu time spent up to now is        1.0 secs

     Computing kpt #:     3
     total cpu time spent up to now is        1.2 secs

     Computing kpt #:     4
     total cpu time spent up to now is        1.4 secs

     Computing kpt #:     5
     total cpu time spent up to now is        1.5 secs

     Computing kpt #:     6
     total cpu time spent up to now is        1.6 secs

     Computing kpt #:     7
     total cpu time spent up to now is        1.8 secs

     Computing kpt #:     8
     total cpu time spent up to now is        1.9 secs

     Computing kpt #:     9
     total cpu time spent up to now is        2.1 secs

     Computing kpt #:    10
     total cpu time spent up to now is        2.2 secs

     Computing kpt #:    11
     total cpu time spent up to now is        2.3 secs

     Computing kpt #:    12
     total cpu time spent up to now is        2.4 secs

     Computing kpt #:    13
     total cpu time spent up to now is        2.6 secs

     Computing kpt #:    14
     total cpu time spent up to now is        2.7 secs

     Computing kpt #:    15
     total cpu time spent up to now is        2.8 secs

     Computing kpt #:    16
     total cpu time spent up to now is        2.9 secs

     Computing kpt #:    17
     total cpu time spent up to now is        3.0 secs

     Computing kpt #:    18
     total cpu time spent up to now is        3.1 secs

     Computing kpt #:    19
     total cpu time spent up to now is        3.2 secs

     Computing kpt #:    20
     total cpu time spent up to now is        3.4 secs

     Computing kpt #:    21
     total cpu time spent up to now is        3.5 secs

     Computing kpt #:    22
     total cpu time spent up to now is        3.7 secs

     Computing kpt #:    23
     total cpu time spent up to now is        3.8 secs

     Computing kpt #:    24
     total cpu time spent up to now is        3.9 secs

     Computing kpt #:    25
     total cpu time spent up to now is        4.0 secs

     Computing kpt #:    26
     total cpu time spent up to now is        4.2 secs

     Computing kpt #:    27
     total cpu time spent up to now is        4.3 secs

     Computing kpt #:    28
     total cpu time spent up to now is        4.4 secs

     Computing kpt #:    29
     total cpu time spent up to now is        4.6 secs

     Computing kpt #:    30
     total cpu time spent up to now is        4.7 secs

     Computing kpt #:    31
     total cpu time spent up to now is        4.8 secs

     Computing kpt #:    32
     total cpu time spent up to now is        5.0 secs

     Computing kpt #:    33
     total cpu time spent up to now is        5.1 secs

     Computing kpt #:    34
     total cpu time spent up to now is        5.3 secs

     Computing kpt #:    35
     total cpu time spent up to now is        5.5 secs

     Computing kpt #:    36
     total cpu time spent up to now is        5.7 secs

     Computing kpt #:    37
     total cpu time spent up to now is        5.9 secs

     Computing kpt #:    38
     total cpu time spent up to now is        6.1 secs

     Computing kpt #:    39
     total cpu time spent up to now is        6.3 secs

     Computing kpt #:    40
     total cpu time spent up to now is        6.4 secs

     Computing kpt #:    41
     total cpu time spent up to now is        6.6 secs

     Computing kpt #:    42
     total cpu time spent up to now is        6.7 secs

     Computing kpt #:    43
     total cpu time spent up to now is        6.9 secs

     Computing kpt #:    44
     total cpu time spent up to now is        7.0 secs

     Computing kpt #:    45
     total cpu time spent up to now is        7.2 secs

     Computing kpt #:    46
     total cpu time spent up to now is        7.3 secs

     Computing kpt #:    47
     total cpu time spent up to now is        7.5 secs

     Computing kpt #:    48
     total cpu time spent up to now is        7.6 secs

     Computing kpt #:    49
     total cpu time spent up to now is        7.8 secs

     Computing kpt #:    50
     total cpu time spent up to now is        7.9 secs

     ethr =  7.14E-10,  avg # of iterations = 16.7

     total cpu time spent up to now is        7.9 secs

     End of band structure calculation

          k = 0.0000 0.0000 0.0000 (   791 PWs)   bands (ev):

   -10.9125 -10.9125 -10.9125 -10.7804 -10.7804  -0.3351  18.4464  18.4464
    18.4464  22.9154  22.9154

          k = 0.0000 0.0619 0.0000 (   783 PWs)   bands (ev):

   -10.9108 -10.9108 -10.9100 -10.7822 -10.7801  -0.2804  18.1102  18.2081
    18.2081  22.1861  22.3582

          k = 0.0000 0.1237 0.0000 (   795 PWs)   bands (ev):

   -10.9057 -10.9057 -10.9029 -10.7875 -10.7793  -0.1160  17.3006  17.5652
    17.5652  21.0868  22.0990

          k = 0.0000 0.1856 0.0000 (   799 PWs)   bands (ev):

   -10.8973 -10.8973 -10.8914 -10.7961 -10.7791   0.1581  16.3098  16.6910
    16.6910  20.0271  22.1804

          k = 0.0000 0.2474 0.0000 (   795 PWs)   bands (ev):

   -10.8854 -10.8854 -10.8761 -10.8076 -10.7810   0.5417  15.2994  15.7374
    15.7374  19.0516  22.4986

          k = 0.0000 0.3093 0.0000 (   795 PWs)   bands (ev):

   -10.8701 -10.8701 -10.8578 -10.8214 -10.7864   1.0343  14.3417  14.7896
    14.7896  18.1696  22.9915

          k = 0.0000 0.3712 0.0000 (   803 PWs)   bands (ev):

   -10.8520 -10.8520 -10.8374 -10.8370 -10.7963   1.6340  13.4698  13.8910
    13.8910  17.3836  23.6270

          k = 0.0000 0.4330 0.0000 (   811 PWs)   bands (ev):

   -10.8535 -10.8314 -10.8314 -10.8159 -10.8111   2.3376  12.6984  13.0653
    13.0653  16.6938  24.3871

          k = 0.0000 0.4949 0.0000 (   799 PWs)   bands (ev):

   -10.8702 -10.8302 -10.8093 -10.8093 -10.7945   3.1394  12.0336  12.3272
    12.3272  16.0993  22.7752

          k = 0.0000 0.5567 0.0000 (   799 PWs)   bands (ev):

   -10.8862 -10.8523 -10.7870 -10.7870 -10.7743   4.0292  11.4762  11.6871
    11.6871  15.5992  20.8513

          k = 0.0000 0.6186 0.0000 (   787 PWs)   bands (ev):

   -10.9007 -10.8753 -10.7657 -10.7657 -10.7561   4.9894  11.0239  11.1529
    11.1529  15.1922  19.0324

          k = 0.0000 0.6804 0.0000 (   796 PWs)   bands (ev):

   -10.9128 -10.8968 -10.7471 -10.7471 -10.7409   5.9865  10.6721  10.7308
    10.7308  14.8771  17.3665

          k = 0.0000 0.7423 0.0000 (   804 PWs)   bands (ev):

   -10.9221 -10.9143 -10.7326 -10.7326 -10.7295   6.9516  10.4142  10.4258
    10.4258  14.6529  15.9310

          k = 0.0000 0.8042 0.0000 (   804 PWs)   bands (ev):

   -10.9278 -10.9258 -10.7233 -10.7233 -10.7225   7.7353  10.2413  10.2413
    10.2449  14.5187  14.8802

          k = 0.0000 0.8660 0.0000 (   784 PWs)   bands (ev):

   -10.9297 -10.9297 -10.7201 -10.7201 -10.7201   8.0615  10.1795  10.1795
    10.1795  14.4740  14.4740

          k = 0.0433 0.8227 0.0000 (   798 PWs)   bands (ev):

   -10.9274 -10.9264 -10.7260 -10.7232 -10.7196   7.7665   9.9631  10.2400
    10.4917  14.6122  14.7817

          k = 0.0866 0.7794 0.0000 (   806 PWs)   bands (ev):

   -10.9205 -10.9164 -10.7432 -10.7322 -10.7183   7.1685   9.4477  10.4200
    11.1295  15.0368  15.5714

          k = 0.1299 0.7361 0.0000 (   806 PWs)   bands (ev):

   -10.9103 -10.9008 -10.7698 -10.7458 -10.7161   6.5318   8.8292  10.7155
    11.8114  15.7598  16.6480

          k = 0.1732 0.6928 0.0000 (   798 PWs)   bands (ev):

   -10.8983 -10.8811 -10.8030 -10.7621 -10.7133   5.9415   8.2158  11.1194
    12.4618  16.7594  17.9046

          k = 0.2165 0.6495 0.0000 (   792 PWs)   bands (ev):

   -10.8874 -10.8589 -10.8395 -10.7780 -10.7103   5.4270   7.6579  11.6206
    13.0911  17.9668  19.2925

          k = 0.2598 0.6062 0.0000 (   802 PWs)   bands (ev):

   -10.8811 -10.8756 -10.8365 -10.7894 -10.7072   5.0002   7.1806  12.2022
    13.7299  19.2424  20.7869

          k = 0.3031 0.5629 0.0000 (   802 PWs)   bands (ev):

   -10.9079 -10.8818 -10.8161 -10.7936 -10.7045   4.6664   6.7983  12.8352
    14.3975  20.0649  20.9501

          k = 0.3464 0.5196 0.0000 (   792 PWs)   bands (ev):

   -10.9334 -10.8872 -10.7998 -10.7920 -10.7023   4.4275   6.5197  13.4651
    15.0867  19.6339  19.8929

          k = 0.3897 0.4763 0.0000 (   806 PWs)   bands (ev):

   -10.9497 -10.8926 -10.7893 -10.7891 -10.7009   4.2841   6.3504  13.9805
    15.7240  18.8659  19.1216

          k = 0.4330 0.4330 0.0000 (   798 PWs)   bands (ev):

   -10.9553 -10.8948 -10.7878 -10.7856 -10.7004   4.2363   6.2937  14.1932
    16.0370  18.4887  18.8237

          k = 0.3936 0.3936 0.0000 (   806 PWs)   bands (ev):

   -10.9544 -10.8940 -10.7888 -10.7855 -10.7049   3.8710   6.7462  14.2464
    16.0754  18.5209  18.8575

          k = 0.3543 0.3543 0.0000 (   802 PWs)   bands (ev):

   -10.9519 -10.8917 -10.7912 -10.7852 -10.7177   3.1847   7.6935  14.4051
    16.1893  18.6177  18.9592

          k = 0.3149 0.3149 0.0000 (   802 PWs)   bands (ev):

   -10.9479 -10.8889 -10.7945 -10.7847 -10.7378   2.4813   8.8294  14.6661
    16.3752  18.7804  19.1292

          k = 0.2756 0.2756 0.0000 (   806 PWs)   bands (ev):

   -10.9428 -10.8869 -10.7973 -10.7841 -10.7635   1.8335  10.0770  15.0243
    16.6263  19.0111  19.3680

          k = 0.2362 0.2362 0.0000 (   788 PWs)   bands (ev):

   -10.9369 -10.8871 -10.7982 -10.7927 -10.7835   1.2623  11.4082  15.4718
    16.9317  19.3123  19.6766

          k = 0.1968 0.1968 0.0000 (   794 PWs)   bands (ev):

   -10.9308 -10.8902 -10.8229 -10.7965 -10.7827   0.7753  12.8034  15.9971
    17.2741  19.6871  20.0559

          k = 0.1575 0.1575 0.0000 (   792 PWs)   bands (ev):

   -10.9250 -10.8956 -10.8516 -10.7929 -10.7821   0.3756  14.2379  16.5825
    17.6275  20.1403  20.5071

          k = 0.1181 0.1181 0.0000 (   802 PWs)   bands (ev):

   -10.9199 -10.9018 -10.8767 -10.7884 -10.7814   0.0645  15.6677  17.1985
    17.9566  20.6799  21.0313

          k = 0.0787 0.0787 0.0000 (   791 PWs)   bands (ev):

   -10.9159 -10.9074 -10.8961 -10.7843 -10.7809  -0.1576  17.0005  17.7914
    18.2213  21.3261  21.6291

          k = 0.0394 0.0394 0.0000 (   785 PWs)   bands (ev):

   -10.9133 -10.9111 -10.9083 -10.7814 -10.7806  -0.2908  18.0356  18.2592
    18.3894  22.1202  22.2985

          k = 0.0000 0.0000 0.0000 (   791 PWs)   bands (ev):

   -10.9125 -10.9125 -10.9125 -10.7804 -10.7804  -0.3351  18.4464  18.4464
    18.4464  22.9154  22.9154

          k = 0.0309 0.0309 0.0309 (   785 PWs)   bands (ev):

   -10.9126 -10.9126 -10.9079 -10.7809 -10.7809  -0.2940  18.0389  18.3455
    18.3455  22.2062  22.2062

          k = 0.0619 0.0619 0.0619 (   791 PWs)   bands (ev):

   -10.9129 -10.9129 -10.8948 -10.7824 -10.7824  -0.1707  17.0889  18.0014
    18.0014  21.5765  21.5765

          k = 0.0928 0.0928 0.0928 (   800 PWs)   bands (ev):

   -10.9135 -10.9135 -10.8746 -10.7844 -10.7844   0.0350  15.9417  17.3780
    17.3780  21.3163  21.3163

          k = 0.1237 0.1237 0.1237 (   803 PWs)   bands (ev):

   -10.9142 -10.9142 -10.8497 -10.7864 -10.7864   0.3231  14.7577  16.5544
    16.5544  21.3860  21.3860

          k = 0.1546 0.1546 0.1546 (   803 PWs)   bands (ev):

   -10.9147 -10.9147 -10.8229 -10.7881 -10.7881   0.6933  13.6041  15.6453
    15.6453  21.6848  21.6848

          k = 0.1856 0.1856 0.1856 (   796 PWs)   bands (ev):

   -10.9146 -10.9146 -10.7974 -10.7892 -10.7892   1.1445  12.5135  14.7238
    14.7238  22.1441  22.1441

          k = 0.2165 0.2165 0.2165 (   802 PWs)   bands (ev):

   -10.9134 -10.9134 -10.7896 -10.7896 -10.7763   1.6741  11.5053  13.8274
    13.8274  22.7268  22.7268

          k = 0.2474 0.2474 0.2474 (   796 PWs)   bands (ev):

   -10.9104 -10.9104 -10.7892 -10.7892 -10.7621   2.2772  10.5941  12.9756
    12.9756  23.4113  23.4113

          k = 0.2784 0.2784 0.2784 (   796 PWs)   bands (ev):

   -10.9053 -10.9053 -10.7884 -10.7884 -10.7565   2.9436   9.7950  12.1793
    12.1793  24.1823  24.1823

          k = 0.3093 0.3093 0.3093 (   796 PWs)   bands (ev):

   -10.8977 -10.8977 -10.7874 -10.7874 -10.7602   3.6532   9.1301  11.4455
    11.4455  25.0257  25.0257

          k = 0.3402 0.3402 0.3402 (   790 PWs)   bands (ev):

   -10.8876 -10.8876 -10.7863 -10.7863 -10.7730   4.3628   8.6418  10.7792
    10.7792  25.9244  25.9244

          k = 0.3712 0.3712 0.3712 (   799 PWs)   bands (ev):

   -10.8754 -10.8754 -10.7934 -10.7854 -10.7854   4.9810   8.4191  10.1842
    10.1842  26.8497  26.8497

          k = 0.4021 0.4021 0.4021 (   793 PWs)   bands (ev):

   -10.8616 -10.8616 -10.8192 -10.7849 -10.7849   5.3673   8.5978   9.6637
     9.6637  27.7311  27.7311

          k = 0.4330 0.4330 0.4330 (   784 PWs)   bands (ev):

   -10.8473 -10.8473 -10.8473 -10.7847 -10.7847   5.4733   9.2204   9.2204
     9.2204  28.3401  28.3401

     Writing output data file pwscf.save

     init_run     :      0.59s CPU      0.47s WALL (       1 calls)
     electrons    :     14.95s CPU      7.31s WALL (       1 calls)

     Called by init_run:
     wfcinit      :      0.00s CPU      0.00s WALL (       1 calls)
     wfcinit:atom :      0.11s CPU      0.03s WALL (      50 calls)
     wfcinit:wfcr :      1.05s CPU      0.45s WALL (      50 calls)
     potinit      :      0.03s CPU      0.03s WALL (       1 calls)

     Called by electrons:
     c_bands      :     14.94s CPU      7.31s WALL (       1 calls)
     v_of_rho     :      0.03s CPU      0.02s WALL (       1 calls)
     v_h          :      0.00s CPU      0.00s WALL (       1 calls)
     v_xc         :      0.03s CPU      0.02s WALL (       1 calls)
     newd         :      0.03s CPU      0.05s WALL (       1 calls)

     Called by c_bands:
     init_us_2    :      0.20s CPU      0.04s WALL (      50 calls)
     cegterg      :     13.33s CPU      6.66s WALL (      58 calls)

     Called by sum_band:

     Called by *egterg:
     h_psi        :      8.89s CPU      4.45s WALL (     944 calls)
     s_psi        :      0.36s CPU      0.14s WALL (     944 calls)
     g_psi        :      0.31s CPU      0.06s WALL (     836 calls)
     cdiaghg      :      2.36s CPU      1.37s WALL (     886 calls)
     cegterg:over :      0.66s CPU      0.39s WALL (     836 calls)
     cegterg:upda :      0.97s CPU      0.32s WALL (     836 calls)
     cegterg:last :      0.38s CPU      0.20s WALL (     180 calls)

     Called by h_psi:
     h_psi:pot    :      8.83s CPU      4.40s WALL (     944 calls)
     h_psi:calbec :      0.44s CPU      0.18s WALL (     944 calls)
     vloc_psi     :      8.03s CPU      4.05s WALL (     944 calls)
     add_vuspsi   :      0.30s CPU      0.15s WALL (     944 calls)

     General routines
     calbec       :      0.44s CPU      0.16s WALL (     944 calls)
     fft          :      0.00s CPU      0.01s WALL (      13 calls)
     ffts         :      0.00s CPU      0.00s WALL (       1 calls)
     fftw         :      6.39s CPU      3.39s WALL (   12222 calls)
     interpolate  :      0.00s CPU      0.00s WALL (       1 calls)
     davcio       :      0.00s CPU      0.00s WALL (      50 calls)

     Parallel routines
     fft_scatter  :      0.48s CPU      0.36s WALL (   12236 calls)

     PWSCF        :    15.95s CPU         8.22s WALL


   This run was terminated on:  20:55:15  25Feb2021            

=------------------------------------------------------------------------------=
   JOB DONE.
=------------------------------------------------------------------------------=
