
     Program PWSCF v.6.0 (svn rev. 13079) starts on 26Feb2021 at  7:10:27 

     This program is part of the open-source Quantum ESPRESSO suite
     for quantum simulation of materials; please cite
         "P. Giannozzi et al., J. Phys.:Condens. Matter 21 395502 (2009);
          URL http://www.quantum-espresso.org", 
     in publications or presentations arising from this work. More details at
     http://www.quantum-espresso.org/quote

     Parallel version (MPI), running on     1 processors
     Reading input from espresso.pwi
Warning: card &IONS ignored
Warning: card / ignored
Warning: card &CELL ignored
Warning: card / ignored

     Current dimensions of program PWSCF are:
     Max number of different atomic species (ntypx) = 10
     Max number of k-points (npk) =  40000
     Max angular momentum in pseudopotentials (lmaxx) =  3
     Message from routine input:
     WARNING: "startingwfc" set to atomic+random may spoil restart

     Atomic positions and unit cell read from directory:
     ./pwscf.save/


     IMPORTANT: XC functional enforced from input :
     Exchange-correlation      = PBE ( 1  4  3  4 0 0)
     Any further DFT definition will be discarded
     Please, verify this is what you really want


     Subspace diagonalization in iterative solution of the eigenvalue problem:
     a serial algorithm will be used


     G-vector sticks info
     --------------------
     sticks:   dense  smooth     PW     G-vecs:    dense   smooth      PW
     Sum         301     241     85                15051    10795    2031



     bravais-lattice index     =            0
     lattice parameter (alat)  =       4.6649  a.u.
     unit-cell volume          =     314.8536 (a.u.)^3
     number of atoms/cell      =            4
     number of atomic types    =            1
     number of electrons       =        16.00
     number of Kohn-Sham states=           12
     kinetic-energy cutoff     =      40.0000  Ry
     charge density cutoff     =     200.0000  Ry
     Exchange-correlation      = PBE ( 1  4  3  4 0 0)

     celldm(1)=   4.664919  celldm(2)=   0.000000  celldm(3)=   0.000000
     celldm(4)=   0.000000  celldm(5)=   0.000000  celldm(6)=   0.000000

     crystal axes: (cart. coord. in units of alat)
               a(1) = (   1.000000   0.000000   0.000000 )  
               a(2) = (  -0.500000   0.866025   0.000000 )  
               a(3) = (   0.000000   0.000000   3.581341 )  

     reciprocal axes: (cart. coord. in units 2 pi/alat)
               b(1) = (  1.000000  0.577350 -0.000000 )  
               b(2) = (  0.000000  1.154701  0.000000 )  
               b(3) = (  0.000000 -0.000000  0.279225 )  


     PseudoPot. # 1 for C  read from file:
     /home/inukai/tango/tests/1element/qe_fit_v3_C/../pseudo/c_pbe_v1.2.uspp.F.UPF
     MD5 check sum: d1aef80898a10debaa0f26306b886e00
     Pseudo is Ultrasoft + core correction, Zval =  4.0
     Generated by new atomic code, or converted to UPF format
     Using radial grid of  721 points,  4 beta functions with: 
                l(1) =   0
                l(2) =   0
                l(3) =   1
                l(4) =   1
     Q(r) pseudized with  8 coefficients,  rinner =    1.100   1.100   1.100


     atomic species   valence    mass     pseudopotential
        C              4.00    12.01100     C ( 1.00)

     12 Sym. Ops., with inversion, found
          (note: 12 additional sym.ops. were found but ignored
           their fractional translations are incommensurate with FFT grid)

                                    s                        frac. trans.

      isym =  1     identity                                     

 cryst.   s( 1) = (     1          0          0      )
                  (     0          1          0      )
                  (     0          0          1      )

 cart.    s( 1) = (  1.0000000  0.0000000  0.0000000 )
                  (  0.0000000  1.0000000  0.0000000 )
                  (  0.0000000  0.0000000  1.0000000 )


      isym =  2     180 deg rotation - cart. axis [1,0,0]        

 cryst.   s( 2) = (     1          0          0      )
                  (    -1         -1          0      )
                  (     0          0         -1      )

 cart.    s( 2) = (  1.0000000  0.0000000  0.0000000 )
                  (  0.0000000 -1.0000000  0.0000000 )
                  (  0.0000000  0.0000000 -1.0000000 )


      isym =  3     120 deg rotation - cryst. axis [0,0,1]       

 cryst.   s( 3) = (     0          1          0      )
                  (    -1         -1          0      )
                  (     0          0          1      )

 cart.    s( 3) = ( -0.5000000 -0.8660254  0.0000000 )
                  (  0.8660254 -0.5000000  0.0000000 )
                  (  0.0000000  0.0000000  1.0000000 )


      isym =  4     120 deg rotation - cryst. axis [0,0,-1]      

 cryst.   s( 4) = (    -1         -1          0      )
                  (     1          0          0      )
                  (     0          0          1      )

 cart.    s( 4) = ( -0.5000000  0.8660254  0.0000000 )
                  ( -0.8660254 -0.5000000  0.0000000 )
                  (  0.0000000  0.0000000  1.0000000 )


      isym =  5     180 deg rotation - cryst. axis [0,1,0]       

 cryst.   s( 5) = (    -1         -1          0      )
                  (     0          1          0      )
                  (     0          0         -1      )

 cart.    s( 5) = ( -0.5000000 -0.8660254  0.0000000 )
                  ( -0.8660254  0.5000000  0.0000000 )
                  (  0.0000000  0.0000000 -1.0000000 )


      isym =  6     180 deg rotation - cryst. axis [1,1,0]       

 cryst.   s( 6) = (     0          1          0      )
                  (     1          0          0      )
                  (     0          0         -1      )

 cart.    s( 6) = ( -0.5000000  0.8660254  0.0000000 )
                  (  0.8660254  0.5000000  0.0000000 )
                  (  0.0000000  0.0000000 -1.0000000 )


      isym =  7     inversion                                    

 cryst.   s( 7) = (    -1          0          0      )
                  (     0         -1          0      )
                  (     0          0         -1      )

 cart.    s( 7) = ( -1.0000000 -0.0000000  0.0000000 )
                  (  0.0000000 -1.0000000  0.0000000 )
                  (  0.0000000  0.0000000 -1.0000000 )


      isym =  8     inv. 180 deg rotation - cart. axis [1,0,0]   

 cryst.   s( 8) = (    -1          0          0      )
                  (     1          1          0      )
                  (     0          0          1      )

 cart.    s( 8) = ( -1.0000000 -0.0000000  0.0000000 )
                  (  0.0000000  1.0000000  0.0000000 )
                  (  0.0000000  0.0000000  1.0000000 )


      isym =  9     inv. 120 deg rotation - cryst. axis [0,0,1]  

 cryst.   s( 9) = (     0         -1          0      )
                  (     1          1          0      )
                  (     0          0         -1      )

 cart.    s( 9) = (  0.5000000  0.8660254  0.0000000 )
                  ( -0.8660254  0.5000000  0.0000000 )
                  (  0.0000000  0.0000000 -1.0000000 )


      isym = 10     inv. 120 deg rotation - cryst. axis [0,0,-1] 

 cryst.   s(10) = (     1          1          0      )
                  (    -1          0          0      )
                  (     0          0         -1      )

 cart.    s(10) = (  0.5000000 -0.8660254  0.0000000 )
                  (  0.8660254  0.5000000  0.0000000 )
                  (  0.0000000  0.0000000 -1.0000000 )


      isym = 11     inv. 180 deg rotation - cryst. axis [0,1,0]  

 cryst.   s(11) = (     1          1          0      )
                  (     0         -1          0      )
                  (     0          0          1      )

 cart.    s(11) = (  0.5000000  0.8660254  0.0000000 )
                  (  0.8660254 -0.5000000  0.0000000 )
                  (  0.0000000  0.0000000  1.0000000 )


      isym = 12     inv. 180 deg rotation - cryst. axis [1,1,0]  

 cryst.   s(12) = (     0         -1          0      )
                  (    -1          0          0      )
                  (     0          0          1      )

 cart.    s(12) = (  0.5000000 -0.8660254  0.0000000 )
                  ( -0.8660254 -0.5000000  0.0000000 )
                  (  0.0000000  0.0000000  1.0000000 )


   Cartesian axes

     site n.     atom                  positions (alat units)
         1           C   tau(   1) = (   0.0000000   0.0000000   2.6860056  )
         2           C   tau(   2) = (   0.0000000   0.0000000   0.8953352  )
         3           C   tau(   3) = (  -0.0000000   0.5773503   2.6860056  )
         4           C   tau(   4) = (   0.5000000   0.2886751   0.8953352  )

   Crystallographic axes

     site n.     atom                  positions (cryst. coord.)
         1           C   tau(   1) = (  0.0000000  0.0000000  0.7500000  )
         2           C   tau(   2) = (  0.0000000  0.0000000  0.2500000  )
         3           C   tau(   3) = (  0.3333333  0.6666667  0.7500000  )
         4           C   tau(   4) = (  0.6666667  0.3333333  0.2500000  )

     number of k points=    50  gaussian smearing, width (Ry)=  0.0010
                       cart. coord. in units 2pi/alat
        k(    1) = (   0.0000000   0.0000000   0.0000000), wk =   0.0400000
        k(    2) = (   0.0714286   0.0412393   0.0000000), wk =   0.0400000
        k(    3) = (   0.1428571   0.0824786   0.0000000), wk =   0.0400000
        k(    4) = (   0.2142857   0.1237179   0.0000000), wk =   0.0400000
        k(    5) = (   0.2857143   0.1649572   0.0000000), wk =   0.0400000
        k(    6) = (   0.3571429   0.2061965   0.0000000), wk =   0.0400000
        k(    7) = (   0.4285714   0.2474358   0.0000000), wk =   0.0400000
        k(    8) = (   0.5000000   0.2886751   0.0000000), wk =   0.0400000
        k(    9) = (   0.4583333   0.3608439   0.0000000), wk =   0.0400000
        k(   10) = (   0.4166667   0.4330127   0.0000000), wk =   0.0400000
        k(   11) = (   0.3750000   0.5051815   0.0000000), wk =   0.0400000
        k(   12) = (   0.3333333   0.5773503   0.0000000), wk =   0.0400000
        k(   13) = (   0.2962963   0.5132002   0.0000000), wk =   0.0400000
        k(   14) = (   0.2592593   0.4490502   0.0000000), wk =   0.0400000
        k(   15) = (   0.2222222   0.3849002   0.0000000), wk =   0.0400000
        k(   16) = (   0.1851852   0.3207501   0.0000000), wk =   0.0400000
        k(   17) = (   0.1481481   0.2566001   0.0000000), wk =   0.0400000
        k(   18) = (   0.1111111   0.1924501   0.0000000), wk =   0.0400000
        k(   19) = (   0.0740741   0.1283001   0.0000000), wk =   0.0400000
        k(   20) = (   0.0370370   0.0641500   0.0000000), wk =   0.0400000
        k(   21) = (   0.0000000   0.0000000   0.0000000), wk =   0.0400000
        k(   22) = (   0.0000000   0.0000000   0.1396125), wk =   0.0400000
        k(   23) = (   0.0625000   0.0360844   0.1396125), wk =   0.0400000
        k(   24) = (   0.1250000   0.0721688   0.1396125), wk =   0.0400000
        k(   25) = (   0.1875000   0.1082532   0.1396125), wk =   0.0400000
        k(   26) = (   0.2500000   0.1443376   0.1396125), wk =   0.0400000
        k(   27) = (   0.3125000   0.1804220   0.1396125), wk =   0.0400000
        k(   28) = (   0.3750000   0.2165064   0.1396125), wk =   0.0400000
        k(   29) = (   0.4375000   0.2525907   0.1396125), wk =   0.0400000
        k(   30) = (   0.5000000   0.2886751   0.1396125), wk =   0.0400000
        k(   31) = (   0.4583333   0.3608439   0.1396125), wk =   0.0400000
        k(   32) = (   0.4166667   0.4330127   0.1396125), wk =   0.0400000
        k(   33) = (   0.3750000   0.5051815   0.1396125), wk =   0.0400000
        k(   34) = (   0.3333333   0.5773503   0.1396125), wk =   0.0400000
        k(   35) = (   0.3030303   0.5248639   0.1396125), wk =   0.0400000
        k(   36) = (   0.2727273   0.4723775   0.1396125), wk =   0.0400000
        k(   37) = (   0.2424242   0.4198911   0.1396125), wk =   0.0400000
        k(   38) = (   0.2121212   0.3674047   0.1396125), wk =   0.0400000
        k(   39) = (   0.1818182   0.3149183   0.1396125), wk =   0.0400000
        k(   40) = (   0.1515152   0.2624319   0.1396125), wk =   0.0400000
        k(   41) = (   0.1212121   0.2099456   0.1396125), wk =   0.0400000
        k(   42) = (   0.0909091   0.1574592   0.1396125), wk =   0.0400000
        k(   43) = (   0.0606061   0.1049728   0.1396125), wk =   0.0400000
        k(   44) = (   0.0303030   0.0524864   0.1396125), wk =   0.0400000
        k(   45) = (   0.0000000   0.0000000   0.1396125), wk =   0.0400000
        k(   46) = (   0.5000000   0.2886751   0.1396125), wk =   0.0400000
        k(   47) = (   0.5000000   0.2886751   0.0000000), wk =   0.0400000
        k(   48) = (   0.3333333   0.5773503   0.0000000), wk =   0.0400000
        k(   49) = (   0.3333333   0.5773503   0.0698063), wk =   0.0400000
        k(   50) = (   0.3333333   0.5773503   0.1396125), wk =   0.0400000

                       cryst. coord.
        k(    1) = (   0.0000000   0.0000000   0.0000000), wk =   0.0400000
        k(    2) = (   0.0714286   0.0000000   0.0000000), wk =   0.0400000
        k(    3) = (   0.1428571   0.0000000   0.0000000), wk =   0.0400000
        k(    4) = (   0.2142857   0.0000000   0.0000000), wk =   0.0400000
        k(    5) = (   0.2857143   0.0000000   0.0000000), wk =   0.0400000
        k(    6) = (   0.3571429   0.0000000   0.0000000), wk =   0.0400000
        k(    7) = (   0.4285714   0.0000000   0.0000000), wk =   0.0400000
        k(    8) = (   0.5000000   0.0000000   0.0000000), wk =   0.0400000
        k(    9) = (   0.4583333   0.0833333   0.0000000), wk =   0.0400000
        k(   10) = (   0.4166667   0.1666667   0.0000000), wk =   0.0400000
        k(   11) = (   0.3750000   0.2500000   0.0000000), wk =   0.0400000
        k(   12) = (   0.3333333   0.3333333   0.0000000), wk =   0.0400000
        k(   13) = (   0.2962963   0.2962963   0.0000000), wk =   0.0400000
        k(   14) = (   0.2592593   0.2592593   0.0000000), wk =   0.0400000
        k(   15) = (   0.2222222   0.2222222   0.0000000), wk =   0.0400000
        k(   16) = (   0.1851852   0.1851852   0.0000000), wk =   0.0400000
        k(   17) = (   0.1481481   0.1481481   0.0000000), wk =   0.0400000
        k(   18) = (   0.1111111   0.1111111   0.0000000), wk =   0.0400000
        k(   19) = (   0.0740741   0.0740741   0.0000000), wk =   0.0400000
        k(   20) = (   0.0370370   0.0370370   0.0000000), wk =   0.0400000
        k(   21) = (   0.0000000   0.0000000   0.0000000), wk =   0.0400000
        k(   22) = (   0.0000000   0.0000000   0.5000000), wk =   0.0400000
        k(   23) = (   0.0625000   0.0000000   0.5000000), wk =   0.0400000
        k(   24) = (   0.1250000   0.0000000   0.5000000), wk =   0.0400000
        k(   25) = (   0.1875000   0.0000000   0.5000000), wk =   0.0400000
        k(   26) = (   0.2500000   0.0000000   0.5000000), wk =   0.0400000
        k(   27) = (   0.3125000   0.0000000   0.5000000), wk =   0.0400000
        k(   28) = (   0.3750000   0.0000000   0.5000000), wk =   0.0400000
        k(   29) = (   0.4375000   0.0000000   0.5000000), wk =   0.0400000
        k(   30) = (   0.5000000   0.0000000   0.5000000), wk =   0.0400000
        k(   31) = (   0.4583333   0.0833333   0.5000000), wk =   0.0400000
        k(   32) = (   0.4166667   0.1666667   0.5000000), wk =   0.0400000
        k(   33) = (   0.3750000   0.2500000   0.5000000), wk =   0.0400000
        k(   34) = (   0.3333333   0.3333333   0.5000000), wk =   0.0400000
        k(   35) = (   0.3030303   0.3030303   0.5000000), wk =   0.0400000
        k(   36) = (   0.2727273   0.2727273   0.5000000), wk =   0.0400000
        k(   37) = (   0.2424242   0.2424242   0.5000000), wk =   0.0400000
        k(   38) = (   0.2121212   0.2121212   0.5000000), wk =   0.0400000
        k(   39) = (   0.1818182   0.1818182   0.5000000), wk =   0.0400000
        k(   40) = (   0.1515152   0.1515152   0.5000000), wk =   0.0400000
        k(   41) = (   0.1212121   0.1212121   0.5000000), wk =   0.0400000
        k(   42) = (   0.0909091   0.0909091   0.5000000), wk =   0.0400000
        k(   43) = (   0.0606061   0.0606061   0.5000000), wk =   0.0400000
        k(   44) = (   0.0303030   0.0303030   0.5000000), wk =   0.0400000
        k(   45) = (   0.0000000   0.0000000   0.5000000), wk =   0.0400000
        k(   46) = (   0.5000000   0.0000000   0.5000000), wk =   0.0400000
        k(   47) = (   0.5000000   0.0000000   0.0000000), wk =   0.0400000
        k(   48) = (   0.3333333   0.3333333   0.0000000), wk =   0.0400000
        k(   49) = (   0.3333333   0.3333333   0.2500000), wk =   0.0400000
        k(   50) = (   0.3333333   0.3333333   0.5000000), wk =   0.0400000

     Dense  grid:    15051 G-vectors     FFT dimensions: (  24,  24,  75)

     Smooth grid:    10795 G-vectors     FFT dimensions: (  20,  20,  72)

     Estimated max dynamical RAM per process >      19.99Mb

     The potential is recalculated from file :
     ./pwscf.save/charge-density.dat

     Starting wfc are   16 randomized atomic wfcs

     Band Structure Calculation
     Davidson diagonalization with overlap

     Computing kpt #:     1
     total cpu time spent up to now is        0.7 secs

     Computing kpt #:     2
     total cpu time spent up to now is        0.9 secs

     Computing kpt #:     3
     total cpu time spent up to now is        1.1 secs

     Computing kpt #:     4
     total cpu time spent up to now is        1.5 secs

     Computing kpt #:     5
     total cpu time spent up to now is        1.8 secs

     Computing kpt #:     6
     total cpu time spent up to now is        2.2 secs

     Computing kpt #:     7
     total cpu time spent up to now is        2.4 secs

     Computing kpt #:     8
     total cpu time spent up to now is        2.6 secs

     Computing kpt #:     9
     total cpu time spent up to now is        2.8 secs

     Computing kpt #:    10
     total cpu time spent up to now is        3.0 secs

     Computing kpt #:    11
     total cpu time spent up to now is        3.4 secs

     Computing kpt #:    12
     total cpu time spent up to now is        3.7 secs

     Computing kpt #:    13
     total cpu time spent up to now is        4.0 secs

     Computing kpt #:    14
     total cpu time spent up to now is        4.3 secs

     Computing kpt #:    15
     total cpu time spent up to now is        4.6 secs

     Computing kpt #:    16
     total cpu time spent up to now is        4.8 secs

     Computing kpt #:    17
     total cpu time spent up to now is        5.1 secs

     Computing kpt #:    18
     total cpu time spent up to now is        5.4 secs

     Computing kpt #:    19
     total cpu time spent up to now is        5.6 secs

     Computing kpt #:    20
     total cpu time spent up to now is        5.9 secs

     Computing kpt #:    21
     total cpu time spent up to now is        6.3 secs

     Computing kpt #:    22
     total cpu time spent up to now is        6.5 secs

     Computing kpt #:    23
     total cpu time spent up to now is        6.7 secs

     Computing kpt #:    24
     total cpu time spent up to now is        6.9 secs

     Computing kpt #:    25
     total cpu time spent up to now is        7.1 secs

     Computing kpt #:    26
     total cpu time spent up to now is        7.4 secs

     Computing kpt #:    27
     total cpu time spent up to now is        7.7 secs

     Computing kpt #:    28
     total cpu time spent up to now is        7.9 secs

     Computing kpt #:    29
     total cpu time spent up to now is        8.2 secs

     Computing kpt #:    30
     total cpu time spent up to now is        8.4 secs

     Computing kpt #:    31
     total cpu time spent up to now is        8.6 secs

     Computing kpt #:    32
     total cpu time spent up to now is        8.8 secs

     Computing kpt #:    33
     total cpu time spent up to now is        9.1 secs

     Computing kpt #:    34
     total cpu time spent up to now is        9.4 secs

     Computing kpt #:    35
     total cpu time spent up to now is        9.7 secs

     Computing kpt #:    36
     total cpu time spent up to now is        9.9 secs

     Computing kpt #:    37
     total cpu time spent up to now is       10.2 secs

     Computing kpt #:    38
     total cpu time spent up to now is       10.4 secs

     Computing kpt #:    39
     total cpu time spent up to now is       10.7 secs

     Computing kpt #:    40
     total cpu time spent up to now is       10.9 secs

     Computing kpt #:    41
     total cpu time spent up to now is       11.1 secs

     Computing kpt #:    42
     total cpu time spent up to now is       11.4 secs

     Computing kpt #:    43
     total cpu time spent up to now is       11.6 secs

     Computing kpt #:    44
     total cpu time spent up to now is       11.9 secs

     Computing kpt #:    45
     total cpu time spent up to now is       12.1 secs

     Computing kpt #:    46
     total cpu time spent up to now is       12.3 secs

     Computing kpt #:    47
     total cpu time spent up to now is       12.5 secs

     Computing kpt #:    48
     total cpu time spent up to now is       12.8 secs

     Computing kpt #:    49
     total cpu time spent up to now is       13.1 secs

     Computing kpt #:    50
     total cpu time spent up to now is       13.3 secs

     ethr =  6.25E-10,  avg # of iterations = 20.8

     total cpu time spent up to now is       13.3 secs

     End of band structure calculation

          k = 0.0000 0.0000 0.0000 (  1353 PWs)   bands (ev):

   -15.2004 -15.1756  -3.4931  -3.1161   1.2396   1.2396   1.2401   1.2401
     7.2968  10.2840  12.5735  12.5735

          k = 0.0714 0.0412 0.0000 (  1360 PWs)   bands (ev):

   -15.0801 -15.0556  -3.3484  -2.9739   0.7558   0.7571   0.9870   0.9878
     7.4547  10.4321  12.6114  12.6356

          k = 0.1429 0.0825 0.0000 (  1346 PWs)   bands (ev):

   -14.7202 -14.6965  -2.9168  -2.5501  -0.5098  -0.5069   0.3606   0.3623
     7.9286  10.8716  12.5913  12.6445

          k = 0.2143 0.1237 0.0000 (  1344 PWs)   bands (ev):

   -14.1238 -14.1012  -2.2118  -2.2075  -2.2072  -1.8549  -0.3972  -0.3952
     8.7178  11.5427  12.4060  12.4242

          k = 0.2857 0.1650 0.0000 (  1334 PWs)   bands (ev):

   -13.2967 -13.2757  -4.0815  -4.0745  -1.2411  -1.1049  -1.1030  -0.9108
     9.8177  10.4460  10.5455  12.1312

          k = 0.3571 0.2062 0.0000 (  1346 PWs)   bands (ev):

   -12.2499 -12.2309  -5.9526  -5.9435  -1.6604  -1.6581  -0.0665   0.2277
     8.4612   8.6122  11.2048  11.8730

          k = 0.4286 0.2474 0.0000 (  1356 PWs)   bands (ev):

   -11.0137 -10.9973  -7.7105  -7.6992  -2.0105  -2.0078   1.1679   1.3916
     6.7140   6.8943  11.6887  11.7213

          k = 0.5000 0.2887 0.0000 (  1340 PWs)   bands (ev):

    -9.9693  -9.9614  -8.9261  -8.9197  -2.1295  -2.1270   1.8745   1.9838
     5.8865   6.0518  11.6286  11.6658

          k = 0.4583 0.3608 0.0000 (  1342 PWs)   bands (ev):

    -9.8640  -9.8563  -8.8229  -8.8166  -2.6540  -2.6504   2.0243   2.1329
     5.8540   6.0016  12.3405  12.3859

          k = 0.4167 0.4330 0.0000 (  1336 PWs)   bands (ev):

    -9.5486  -9.5412  -8.5291  -8.5235  -3.9385  -3.9329   2.4715   2.5781
     5.6919   5.7847  14.1396  14.2305

          k = 0.3750 0.5052 0.0000 (  1322 PWs)   bands (ev):

    -9.0240  -9.0171  -8.1437  -8.1402  -5.4375  -5.4313   3.2108   3.3142
     5.2316   5.2349  15.1168  15.4389

          k = 0.3333 0.5774 0.0000 (  1341 PWs)   bands (ev):

    -8.2959  -8.2895  -8.2895  -8.2835  -6.2477  -6.2477   4.1860   4.2836
     4.2836   4.3841  14.9403  14.9403

          k = 0.2963 0.5132 0.0000 (  1339 PWs)   bands (ev):

    -9.3723  -9.3596  -7.4727  -7.4671  -5.7934  -5.7898   3.0512   3.2299
     5.3672   5.4607  14.9020  15.1831

          k = 0.2593 0.4491 0.0000 (  1341 PWs)   bands (ev):

   -10.6240 -10.6082  -6.4985  -6.4936  -4.9078  -4.9040   1.7554   1.9954
     6.6905   6.7768  13.4547  14.7403

          k = 0.2222 0.3849 0.0000 (  1345 PWs)   bands (ev):

   -11.7905 -11.7724  -5.3801  -5.3760  -3.8502  -3.8469   0.4844   0.7694
     8.1767   8.2542  11.8586  14.0472

          k = 0.1852 0.3208 0.0000 (  1343 PWs)   bands (ev):

   -12.8108 -12.7907  -4.1353  -4.1320  -2.7068  -2.7042  -0.6720  -0.3545
     9.7804   9.8473  10.4776  13.0763

          k = 0.1481 0.2566 0.0000 (  1361 PWs)   bands (ev):

   -13.6615 -13.6398  -2.7967  -2.7940  -1.6613  -1.5507  -1.5488  -1.3203
     9.3362  11.4300  11.4838  12.1321

          k = 0.1111 0.1925 0.0000 (  1365 PWs)   bands (ev):

   -14.3310 -14.3080  -2.4526  -2.0950  -1.4250  -1.4230  -0.4700  -0.4686
     8.4444  11.3430  13.0153  13.0552

          k = 0.0741 0.1283 0.0000 (  1349 PWs)   bands (ev):

   -14.8129 -14.7890  -3.0277  -2.6589  -0.1370  -0.1353   0.4276   0.4288
     7.8066  10.7597  12.8120  12.8674

          k = 0.0370 0.0642 0.0000 (  1363 PWs)   bands (ev):

   -15.1034 -15.0788  -3.3764  -3.0013   0.8523   0.8532   1.0278   1.0284
     7.4242  10.4035  12.6231  12.6442

          k = 0.0000 0.0000 0.0000 (  1353 PWs)   bands (ev):

   -15.2004 -15.1756  -3.4931  -3.1161   1.2396   1.2396   1.2401   1.2401
     7.2968  10.2840  12.5735  12.5735

          k = 0.0000 0.0000 0.1396 (  1366 PWs)   bands (ev):

   -15.1880 -15.1880  -3.3113  -3.3113   1.2396   1.2396   1.2396   1.2396
     8.4260   8.4269  12.5748  12.5748

          k = 0.0625 0.0361 0.1396 (  1352 PWs)   bands (ev):

   -15.0960 -15.0960  -3.2013  -3.2013   0.8665   0.8665   1.0441   1.0441
     8.5439   8.5448  12.6219  12.6219

          k = 0.1250 0.0722 0.1396 (  1340 PWs)   bands (ev):

   -14.8206 -14.8206  -2.8731  -2.8730  -0.1382  -0.1382   0.5394   0.5394
     8.8973   8.8981  12.6517  12.6517

          k = 0.1875 0.1083 0.1396 (  1348 PWs)   bands (ev):

   -14.3634 -14.3634  -2.3319  -2.3319  -1.5401  -1.5401  -0.1102  -0.1102
     9.4829   9.4837  12.5403  12.5403

          k = 0.2500 0.1443 0.1396 (  1344 PWs)   bands (ev):

   -13.7277 -13.7277  -3.1351  -3.1351  -1.5887  -1.5887  -0.7642  -0.7642
    10.2760  10.2768  11.5398  11.5398

          k = 0.3125 0.1804 0.1396 (  1350 PWs)   bands (ev):

   -12.9189 -12.9189  -4.7858  -4.7858  -1.3337  -1.3337  -0.6661  -0.6660
     9.7364   9.7364  11.3791  11.3798

          k = 0.3750 0.2165 0.1396 (  1350 PWs)   bands (ev):

   -11.9472 -11.9472  -6.4024  -6.4024  -1.7674  -1.7674   0.3842   0.3842
     8.0597   8.0597  11.8120  11.8120

          k = 0.4375 0.2526 0.1396 (  1342 PWs)   bands (ev):

   -10.8428 -10.8428  -7.9091  -7.9091  -2.0369  -2.0369   1.4108   1.4108
     6.6213   6.6213  11.6927  11.6927

          k = 0.5000 0.2887 0.1396 (  1352 PWs)   bands (ev):

    -9.9654  -9.9654  -8.9230  -8.9230  -2.1283  -2.1283   1.9304   1.9304
     5.9594   5.9594  11.6472  11.6472

          k = 0.4583 0.3608 0.1396 (  1348 PWs)   bands (ev):

    -9.8601  -9.8601  -8.8198  -8.8198  -2.6523  -2.6523   2.0797   2.0797
     5.9190   5.9190  12.3631  12.3631

          k = 0.4167 0.4330 0.1396 (  1344 PWs)   bands (ev):

    -9.5449  -9.5449  -8.5264  -8.5264  -3.9357  -3.9357   2.5261   2.5261
     5.7321   5.7321  14.1825  14.1825

          k = 0.3750 0.5052 0.1396 (  1338 PWs)   bands (ev):

    -9.0206  -9.0206  -8.1420  -8.1420  -5.4345  -5.4345   3.2642   3.2642
     5.2295   5.2295  14.9578  14.9579

          k = 0.3333 0.5774 0.1396 (  1326 PWs)   bands (ev):

    -8.2897  -8.2897  -8.2895  -8.2895  -6.2478  -6.2478   4.2834   4.2835
     4.2845   4.2845  14.7372  14.7372

          k = 0.3030 0.5249 0.1396 (  1328 PWs)   bands (ev):

    -9.1419  -9.1419  -7.6306  -7.6306  -5.9213  -5.9213   3.3616   3.3616
     5.1931   5.1932  14.7753  14.7755

          k = 0.2727 0.4724 0.1396 (  1344 PWs)   bands (ev):

   -10.1655 -10.1655  -6.8675  -6.8675  -5.2542  -5.2542   2.3378   2.3378
     6.2328   6.2328  14.4385  14.4391

          k = 0.2424 0.4199 0.1396 (  1346 PWs)   bands (ev):

   -11.1616 -11.1616  -6.0049  -6.0049  -4.4404  -4.4404   1.2960   1.2960
     7.3891   7.3891  13.4854  13.4862

          k = 0.2121 0.3674 0.1396 (  1356 PWs)   bands (ev):

   -12.0753 -12.0753  -5.0502  -5.0502  -3.5424  -3.5424   0.2983   0.2983
     8.6420   8.6420  12.3977  12.3985

          k = 0.1818 0.3149 0.1396 (  1358 PWs)   bands (ev):

   -12.8853 -12.8853  -4.0154  -4.0154  -2.5998  -2.5998  -0.6143  -0.6143
     9.9624   9.9624  11.3806  11.3814

          k = 0.1515 0.2624 0.1396 (  1346 PWs)   bands (ev):

   -13.5808 -13.5808  -2.9195  -2.9195  -1.6530  -1.6530  -1.4150  -1.4150
    10.4919  10.4928  11.3084  11.3084

          k = 0.1212 0.2099 0.1396 (  1334 PWs)   bands (ev):

   -14.1555 -14.1555  -2.0866  -2.0865  -1.7959  -1.7959  -0.7505  -0.7505
     9.7532   9.7541  12.6197  12.6197

          k = 0.0909 0.1575 0.1396 (  1344 PWs)   bands (ev):

   -14.6057 -14.6057  -2.6180  -2.6179  -0.7002  -0.7002   0.0504   0.0504
     9.1739   9.1748  13.0192  13.0192

          k = 0.0606 0.1050 0.1396 (  1348 PWs)   bands (ev):

   -14.9287 -14.9287  -3.0018  -3.0017   0.2730   0.2730   0.6863   0.6863
     8.7586   8.7595  12.7591  12.7591

          k = 0.0303 0.0525 0.1396 (  1360 PWs)   bands (ev):

   -15.1231 -15.1231  -3.2337  -3.2337   0.9769   0.9769   1.0973   1.0973
     8.5092   8.5100  12.6184  12.6184

          k = 0.0000 0.0000 0.1396 (  1366 PWs)   bands (ev):

   -15.1880 -15.1880  -3.3113  -3.3113   1.2396   1.2396   1.2396   1.2396
     8.4260   8.4269  12.5748  12.5748

          k = 0.5000 0.2887 0.1396 (  1352 PWs)   bands (ev):

    -9.9654  -9.9654  -8.9230  -8.9230  -2.1283  -2.1283   1.9304   1.9304
     5.9594   5.9594  11.6472  11.6472

          k = 0.5000 0.2887 0.0000 (  1340 PWs)   bands (ev):

    -9.9693  -9.9614  -8.9261  -8.9197  -2.1295  -2.1270   1.8745   1.9838
     5.8865   6.0518  11.6286  11.6658

          k = 0.3333 0.5774 0.0000 (  1341 PWs)   bands (ev):

    -8.2959  -8.2895  -8.2895  -8.2835  -6.2477  -6.2477   4.1860   4.2836
     4.2836   4.3841  14.9403  14.9403

          k = 0.3333 0.5774 0.0698 (  1335 PWs)   bands (ev):

    -8.2941  -8.2895  -8.2895  -8.2853  -6.2478  -6.2478   4.2144   4.2841
     4.2841   4.3543  14.8293  14.8293

          k = 0.3333 0.5774 0.1396 (  1326 PWs)   bands (ev):

    -8.2897  -8.2897  -8.2895  -8.2895  -6.2478  -6.2478   4.2834   4.2835
     4.2845   4.2845  14.7372  14.7372

     Writing output data file pwscf.save

     init_run     :      0.17s CPU      0.23s WALL (       1 calls)
     electrons    :     25.88s CPU     12.98s WALL (       1 calls)

     Called by init_run:
     wfcinit      :      0.00s CPU      0.00s WALL (       1 calls)
     wfcinit:atom :      0.00s CPU      0.03s WALL (      50 calls)
     wfcinit:wfcr :      1.62s CPU      0.80s WALL (      50 calls)
     potinit      :      0.03s CPU      0.04s WALL (       1 calls)

     Called by electrons:
     c_bands      :     25.88s CPU     12.98s WALL (       1 calls)
     v_of_rho     :      0.03s CPU      0.04s WALL (       1 calls)
     v_h          :      0.00s CPU      0.00s WALL (       1 calls)
     v_xc         :      0.03s CPU      0.03s WALL (       1 calls)
     newd         :      0.00s CPU      0.02s WALL (       1 calls)

     Called by c_bands:
     init_us_2    :      0.16s CPU      0.04s WALL (      50 calls)
     cegterg      :     23.28s CPU     11.76s WALL (      72 calls)

     Called by sum_band:

     Called by *egterg:
     h_psi        :     15.53s CPU      7.76s WALL (    1163 calls)
     s_psi        :      1.05s CPU      0.43s WALL (    1163 calls)
     g_psi        :      0.39s CPU      0.11s WALL (    1041 calls)
     cdiaghg      :      3.59s CPU      1.98s WALL (    1091 calls)
     cegterg:over :      1.72s CPU      0.84s WALL (    1041 calls)
     cegterg:upda :      1.36s CPU      0.70s WALL (    1041 calls)
     cegterg:last :      0.73s CPU      0.42s WALL (     213 calls)

     Called by h_psi:
     h_psi:pot    :     15.39s CPU      7.67s WALL (    1163 calls)
     h_psi:calbec :      1.03s CPU      0.50s WALL (    1163 calls)
     vloc_psi     :     13.44s CPU      6.68s WALL (    1163 calls)
     add_vuspsi   :      0.83s CPU      0.46s WALL (    1163 calls)

     General routines
     calbec       :      0.98s CPU      0.48s WALL (    1163 calls)
     fft          :      0.03s CPU      0.02s WALL (      13 calls)
     ffts         :      0.00s CPU      0.00s WALL (       1 calls)
     fftw         :     11.09s CPU      5.24s WALL (   15706 calls)
     interpolate  :      0.00s CPU      0.00s WALL (       1 calls)
     davcio       :      0.00s CPU      0.01s WALL (      50 calls)

     Parallel routines
     fft_scatter  :      1.48s CPU      0.75s WALL (   15720 calls)

     PWSCF        :    26.41s CPU        13.60s WALL


   This run was terminated on:   7:10:41  26Feb2021            

=------------------------------------------------------------------------------=
   JOB DONE.
=------------------------------------------------------------------------------=
