
     Program PWSCF v.6.0 (svn rev. 13079) starts on 26Feb2021 at  6:12:41 

     This program is part of the open-source Quantum ESPRESSO suite
     for quantum simulation of materials; please cite
         "P. Giannozzi et al., J. Phys.:Condens. Matter 21 395502 (2009);
          URL http://www.quantum-espresso.org", 
     in publications or presentations arising from this work. More details at
     http://www.quantum-espresso.org/quote

     Parallel version (MPI), running on     1 processors
     Reading input from espresso.pwi
Warning: card &IONS ignored
Warning: card / ignored
Warning: card &CELL ignored
Warning: card / ignored

     Current dimensions of program PWSCF are:
     Max number of different atomic species (ntypx) = 10
     Max number of k-points (npk) =  40000
     Max angular momentum in pseudopotentials (lmaxx) =  3
     Message from routine input:
     WARNING: "startingwfc" set to atomic+random may spoil restart

     Atomic positions and unit cell read from directory:
     ./pwscf.save/


     IMPORTANT: XC functional enforced from input :
     Exchange-correlation      = PBE ( 1  4  3  4 0 0)
     Any further DFT definition will be discarded
     Please, verify this is what you really want


     Subspace diagonalization in iterative solution of the eigenvalue problem:
     a serial algorithm will be used


     G-vector sticks info
     --------------------
     sticks:   dense  smooth     PW     G-vecs:    dense   smooth      PW
     Sum         793     637    199                22387    16059    2715



     bravais-lattice index     =            0
     lattice parameter (alat)  =       7.5732  a.u.
     unit-cell volume          =     469.6021 (a.u.)^3
     number of atoms/cell      =            4
     number of atomic types    =            1
     number of electrons       =         4.00
     number of Kohn-Sham states=            6
     kinetic-energy cutoff     =      40.0000  Ry
     charge density cutoff     =     200.0000  Ry
     Exchange-correlation      = PBE ( 1  4  3  4 0 0)

     celldm(1)=   7.573246  celldm(2)=   0.000000  celldm(3)=   0.000000
     celldm(4)=   0.000000  celldm(5)=   0.000000  celldm(6)=   0.000000

     crystal axes: (cart. coord. in units of alat)
               a(1) = (   1.000000   0.000000   0.000000 )  
               a(2) = (  -0.500000   0.866025   0.000000 )  
               a(3) = (   0.000000   0.000000   1.248398 )  

     reciprocal axes: (cart. coord. in units 2 pi/alat)
               b(1) = (  1.000000  0.577350 -0.000000 )  
               b(2) = (  0.000000  1.154701  0.000000 )  
               b(3) = (  0.000000 -0.000000  0.801026 )  


     PseudoPot. # 1 for H  read from file:
     /home/inukai/tango/tests/1element/qe_fit_v3_H/../pseudo/h_pbe_v1.4.uspp.F.UPF
     MD5 check sum: 761ae9a214b05c3daf00ab9f6b793d6f
     Pseudo is Ultrasoft, Zval =  1.0
     Generated by new atomic code, or converted to UPF format
     Using radial grid of  615 points,  2 beta functions with: 
                l(1) =   0
                l(2) =   0
     Q(r) pseudized with  8 coefficients,  rinner =    0.700

     atomic species   valence    mass     pseudopotential
        H              1.00     1.00800     H ( 1.00)

     12 Sym. Ops., with inversion, found
          (note: 12 additional sym.ops. were found but ignored
           their fractional translations are incommensurate with FFT grid)

                                    s                        frac. trans.

      isym =  1     identity                                     

 cryst.   s( 1) = (     1          0          0      )
                  (     0          1          0      )
                  (     0          0          1      )

 cart.    s( 1) = (  1.0000000  0.0000000  0.0000000 )
                  (  0.0000000  1.0000000  0.0000000 )
                  (  0.0000000  0.0000000  1.0000000 )


      isym =  2     180 deg rotation - cart. axis [1,0,0]        

 cryst.   s( 2) = (     1          0          0      )
                  (    -1         -1          0      )
                  (     0          0         -1      )

 cart.    s( 2) = (  1.0000000  0.0000000  0.0000000 )
                  (  0.0000000 -1.0000000  0.0000000 )
                  (  0.0000000  0.0000000 -1.0000000 )


      isym =  3     120 deg rotation - cryst. axis [0,0,1]       

 cryst.   s( 3) = (     0          1          0      )
                  (    -1         -1          0      )
                  (     0          0          1      )

 cart.    s( 3) = ( -0.5000000 -0.8660254  0.0000000 )
                  (  0.8660254 -0.5000000  0.0000000 )
                  (  0.0000000  0.0000000  1.0000000 )


      isym =  4     120 deg rotation - cryst. axis [0,0,-1]      

 cryst.   s( 4) = (    -1         -1          0      )
                  (     1          0          0      )
                  (     0          0          1      )

 cart.    s( 4) = ( -0.5000000  0.8660254  0.0000000 )
                  ( -0.8660254 -0.5000000  0.0000000 )
                  (  0.0000000  0.0000000  1.0000000 )


      isym =  5     180 deg rotation - cryst. axis [0,1,0]       

 cryst.   s( 5) = (    -1         -1          0      )
                  (     0          1          0      )
                  (     0          0         -1      )

 cart.    s( 5) = ( -0.5000000 -0.8660254  0.0000000 )
                  ( -0.8660254  0.5000000  0.0000000 )
                  (  0.0000000  0.0000000 -1.0000000 )


      isym =  6     180 deg rotation - cryst. axis [1,1,0]       

 cryst.   s( 6) = (     0          1          0      )
                  (     1          0          0      )
                  (     0          0         -1      )

 cart.    s( 6) = ( -0.5000000  0.8660254  0.0000000 )
                  (  0.8660254  0.5000000  0.0000000 )
                  (  0.0000000  0.0000000 -1.0000000 )


      isym =  7     inversion                                    

 cryst.   s( 7) = (    -1          0          0      )
                  (     0         -1          0      )
                  (     0          0         -1      )

 cart.    s( 7) = ( -1.0000000  0.0000000  0.0000000 )
                  (  0.0000000 -1.0000000  0.0000000 )
                  (  0.0000000  0.0000000 -1.0000000 )


      isym =  8     inv. 180 deg rotation - cart. axis [1,0,0]   

 cryst.   s( 8) = (    -1          0          0      )
                  (     1          1          0      )
                  (     0          0          1      )

 cart.    s( 8) = ( -1.0000000  0.0000000  0.0000000 )
                  (  0.0000000  1.0000000  0.0000000 )
                  (  0.0000000  0.0000000  1.0000000 )


      isym =  9     inv. 120 deg rotation - cryst. axis [0,0,1]  

 cryst.   s( 9) = (     0         -1          0      )
                  (     1          1          0      )
                  (     0          0         -1      )

 cart.    s( 9) = (  0.5000000  0.8660254  0.0000000 )
                  ( -0.8660254  0.5000000  0.0000000 )
                  (  0.0000000  0.0000000 -1.0000000 )


      isym = 10     inv. 120 deg rotation - cryst. axis [0,0,-1] 

 cryst.   s(10) = (     1          1          0      )
                  (    -1          0          0      )
                  (     0          0         -1      )

 cart.    s(10) = (  0.5000000 -0.8660254  0.0000000 )
                  (  0.8660254  0.5000000  0.0000000 )
                  (  0.0000000  0.0000000 -1.0000000 )


      isym = 11     inv. 180 deg rotation - cryst. axis [0,1,0]  

 cryst.   s(11) = (     1          1          0      )
                  (     0         -1          0      )
                  (     0          0          1      )

 cart.    s(11) = (  0.5000000  0.8660254  0.0000000 )
                  (  0.8660254 -0.5000000  0.0000000 )
                  (  0.0000000  0.0000000  1.0000000 )


      isym = 12     inv. 180 deg rotation - cryst. axis [1,1,0]  

 cryst.   s(12) = (     0         -1          0      )
                  (    -1          0          0      )
                  (     0          0          1      )

 cart.    s(12) = (  0.5000000 -0.8660254  0.0000000 )
                  ( -0.8660254 -0.5000000  0.0000000 )
                  (  0.0000000  0.0000000  1.0000000 )


   Cartesian axes

     site n.     atom                  positions (alat units)
         1           H   tau(   1) = (  -0.0000000   0.5773503   0.8426440  )
         2           H   tau(   2) = (   0.5000000   0.2886751   0.2184448  )
         3           H   tau(   3) = (   0.5000000   0.2886751   0.4057545  )
         4           H   tau(   4) = (  -0.0000000   0.5773503   1.0299537  )

   Crystallographic axes

     site n.     atom                  positions (cryst. coord.)
         1           H   tau(   1) = (  0.3333333  0.6666667  0.6749800  )
         2           H   tau(   2) = (  0.6666667  0.3333333  0.1749800  )
         3           H   tau(   3) = (  0.6666667  0.3333333  0.3250200  )
         4           H   tau(   4) = (  0.3333333  0.6666667  0.8250200  )

     number of k points=    50  gaussian smearing, width (Ry)=  0.0010
                       cart. coord. in units 2pi/alat
        k(    1) = (   0.0000000   0.0000000   0.0000000), wk =   0.0400000
        k(    2) = (   0.0833333   0.0481125   0.0000000), wk =   0.0400000
        k(    3) = (   0.1666667   0.0962250   0.0000000), wk =   0.0400000
        k(    4) = (   0.2500000   0.1443376   0.0000000), wk =   0.0400000
        k(    5) = (   0.3333333   0.1924501   0.0000000), wk =   0.0400000
        k(    6) = (   0.4166667   0.2405626   0.0000000), wk =   0.0400000
        k(    7) = (   0.5000000   0.2886751   0.0000000), wk =   0.0400000
        k(    8) = (   0.4444444   0.3849002   0.0000000), wk =   0.0400000
        k(    9) = (   0.3888889   0.4811252   0.0000000), wk =   0.0400000
        k(   10) = (   0.3333333   0.5773503   0.0000000), wk =   0.0400000
        k(   11) = (   0.2857143   0.4948717   0.0000000), wk =   0.0400000
        k(   12) = (   0.2380952   0.4123930   0.0000000), wk =   0.0400000
        k(   13) = (   0.1904762   0.3299144   0.0000000), wk =   0.0400000
        k(   14) = (   0.1428571   0.2474358   0.0000000), wk =   0.0400000
        k(   15) = (   0.0952381   0.1649572   0.0000000), wk =   0.0400000
        k(   16) = (   0.0476190   0.0824786   0.0000000), wk =   0.0400000
        k(   17) = (   0.0000000   0.0000000   0.0000000), wk =   0.0400000
        k(   18) = (   0.0000000   0.0000000   0.1001283), wk =   0.0400000
        k(   19) = (   0.0000000   0.0000000   0.2002566), wk =   0.0400000
        k(   20) = (   0.0000000   0.0000000   0.3003849), wk =   0.0400000
        k(   21) = (   0.0000000   0.0000000   0.4005131), wk =   0.0400000
        k(   22) = (   0.0833333   0.0481125   0.4005131), wk =   0.0400000
        k(   23) = (   0.1666667   0.0962250   0.4005131), wk =   0.0400000
        k(   24) = (   0.2500000   0.1443376   0.4005131), wk =   0.0400000
        k(   25) = (   0.3333333   0.1924501   0.4005131), wk =   0.0400000
        k(   26) = (   0.4166667   0.2405626   0.4005131), wk =   0.0400000
        k(   27) = (   0.5000000   0.2886751   0.4005131), wk =   0.0400000
        k(   28) = (   0.4444444   0.3849002   0.4005131), wk =   0.0400000
        k(   29) = (   0.3888889   0.4811252   0.4005131), wk =   0.0400000
        k(   30) = (   0.3333333   0.5773503   0.4005131), wk =   0.0400000
        k(   31) = (   0.2962963   0.5132002   0.4005131), wk =   0.0400000
        k(   32) = (   0.2592593   0.4490502   0.4005131), wk =   0.0400000
        k(   33) = (   0.2222222   0.3849002   0.4005131), wk =   0.0400000
        k(   34) = (   0.1851852   0.3207501   0.4005131), wk =   0.0400000
        k(   35) = (   0.1481481   0.2566001   0.4005131), wk =   0.0400000
        k(   36) = (   0.1111111   0.1924501   0.4005131), wk =   0.0400000
        k(   37) = (   0.0740741   0.1283001   0.4005131), wk =   0.0400000
        k(   38) = (   0.0370370   0.0641500   0.4005131), wk =   0.0400000
        k(   39) = (   0.0000000   0.0000000   0.4005131), wk =   0.0400000
        k(   40) = (   0.5000000   0.2886751   0.4005131), wk =   0.0400000
        k(   41) = (   0.5000000   0.2886751   0.3204105), wk =   0.0400000
        k(   42) = (   0.5000000   0.2886751   0.2403079), wk =   0.0400000
        k(   43) = (   0.5000000   0.2886751   0.1602053), wk =   0.0400000
        k(   44) = (   0.5000000   0.2886751   0.0801026), wk =   0.0400000
        k(   45) = (   0.5000000   0.2886751   0.0000000), wk =   0.0400000
        k(   46) = (   0.3333333   0.5773503   0.0000000), wk =   0.0400000
        k(   47) = (   0.3333333   0.5773503   0.1001283), wk =   0.0400000
        k(   48) = (   0.3333333   0.5773503   0.2002566), wk =   0.0400000
        k(   49) = (   0.3333333   0.5773503   0.3003849), wk =   0.0400000
        k(   50) = (   0.3333333   0.5773503   0.4005131), wk =   0.0400000

                       cryst. coord.
        k(    1) = (   0.0000000   0.0000000   0.0000000), wk =   0.0400000
        k(    2) = (   0.0833333   0.0000000   0.0000000), wk =   0.0400000
        k(    3) = (   0.1666667   0.0000000   0.0000000), wk =   0.0400000
        k(    4) = (   0.2500000   0.0000000   0.0000000), wk =   0.0400000
        k(    5) = (   0.3333333   0.0000000   0.0000000), wk =   0.0400000
        k(    6) = (   0.4166667   0.0000000   0.0000000), wk =   0.0400000
        k(    7) = (   0.5000000   0.0000000   0.0000000), wk =   0.0400000
        k(    8) = (   0.4444444   0.1111111   0.0000000), wk =   0.0400000
        k(    9) = (   0.3888889   0.2222222   0.0000000), wk =   0.0400000
        k(   10) = (   0.3333333   0.3333333   0.0000000), wk =   0.0400000
        k(   11) = (   0.2857143   0.2857143   0.0000000), wk =   0.0400000
        k(   12) = (   0.2380952   0.2380952   0.0000000), wk =   0.0400000
        k(   13) = (   0.1904762   0.1904762   0.0000000), wk =   0.0400000
        k(   14) = (   0.1428571   0.1428571   0.0000000), wk =   0.0400000
        k(   15) = (   0.0952381   0.0952381   0.0000000), wk =   0.0400000
        k(   16) = (   0.0476190   0.0476190   0.0000000), wk =   0.0400000
        k(   17) = (   0.0000000   0.0000000   0.0000000), wk =   0.0400000
        k(   18) = (   0.0000000   0.0000000   0.1250000), wk =   0.0400000
        k(   19) = (   0.0000000   0.0000000   0.2500000), wk =   0.0400000
        k(   20) = (   0.0000000   0.0000000   0.3750000), wk =   0.0400000
        k(   21) = (   0.0000000   0.0000000   0.5000000), wk =   0.0400000
        k(   22) = (   0.0833333   0.0000000   0.5000000), wk =   0.0400000
        k(   23) = (   0.1666667   0.0000000   0.5000000), wk =   0.0400000
        k(   24) = (   0.2500000   0.0000000   0.5000000), wk =   0.0400000
        k(   25) = (   0.3333333   0.0000000   0.5000000), wk =   0.0400000
        k(   26) = (   0.4166667   0.0000000   0.5000000), wk =   0.0400000
        k(   27) = (   0.5000000   0.0000000   0.5000000), wk =   0.0400000
        k(   28) = (   0.4444444   0.1111111   0.5000000), wk =   0.0400000
        k(   29) = (   0.3888889   0.2222222   0.5000000), wk =   0.0400000
        k(   30) = (   0.3333333   0.3333333   0.5000000), wk =   0.0400000
        k(   31) = (   0.2962963   0.2962963   0.5000000), wk =   0.0400000
        k(   32) = (   0.2592593   0.2592593   0.5000000), wk =   0.0400000
        k(   33) = (   0.2222222   0.2222222   0.5000000), wk =   0.0400000
        k(   34) = (   0.1851852   0.1851852   0.5000000), wk =   0.0400000
        k(   35) = (   0.1481481   0.1481481   0.5000000), wk =   0.0400000
        k(   36) = (   0.1111111   0.1111111   0.5000000), wk =   0.0400000
        k(   37) = (   0.0740741   0.0740741   0.5000000), wk =   0.0400000
        k(   38) = (   0.0370370   0.0370370   0.5000000), wk =   0.0400000
        k(   39) = (   0.0000000   0.0000000   0.5000000), wk =   0.0400000
        k(   40) = (   0.5000000   0.0000000   0.5000000), wk =   0.0400000
        k(   41) = (   0.5000000   0.0000000   0.4000000), wk =   0.0400000
        k(   42) = (   0.5000000   0.0000000   0.3000000), wk =   0.0400000
        k(   43) = (   0.5000000   0.0000000   0.2000000), wk =   0.0400000
        k(   44) = (   0.5000000   0.0000000   0.1000000), wk =   0.0400000
        k(   45) = (   0.5000000   0.0000000   0.0000000), wk =   0.0400000
        k(   46) = (   0.3333333   0.3333333   0.0000000), wk =   0.0400000
        k(   47) = (   0.3333333   0.3333333   0.1250000), wk =   0.0400000
        k(   48) = (   0.3333333   0.3333333   0.2500000), wk =   0.0400000
        k(   49) = (   0.3333333   0.3333333   0.3750000), wk =   0.0400000
        k(   50) = (   0.3333333   0.3333333   0.5000000), wk =   0.0400000

     Dense  grid:    22387 G-vectors     FFT dimensions: (  36,  36,  45)

     Smooth grid:    16059 G-vectors     FFT dimensions: (  32,  32,  40)

     Estimated max dynamical RAM per process >      17.77Mb

     The potential is recalculated from file :
     ./pwscf.save/charge-density.dat

     Starting wfc are    4 randomized atomic wfcs +    2 random wfc

     Band Structure Calculation
     Davidson diagonalization with overlap

     Computing kpt #:     1
     total cpu time spent up to now is        0.3 secs

     Computing kpt #:     2
     total cpu time spent up to now is        0.5 secs

     Computing kpt #:     3
     total cpu time spent up to now is        0.7 secs

     Computing kpt #:     4
     total cpu time spent up to now is        0.8 secs

     Computing kpt #:     5
     total cpu time spent up to now is        1.0 secs

     Computing kpt #:     6
     total cpu time spent up to now is        1.1 secs

     Computing kpt #:     7
     total cpu time spent up to now is        1.2 secs

     Computing kpt #:     8
     total cpu time spent up to now is        1.3 secs

     Computing kpt #:     9
     total cpu time spent up to now is        1.5 secs

     Computing kpt #:    10
     total cpu time spent up to now is        1.7 secs

     Computing kpt #:    11
     total cpu time spent up to now is        1.9 secs

     Computing kpt #:    12
     total cpu time spent up to now is        2.0 secs

     Computing kpt #:    13
     total cpu time spent up to now is        2.1 secs

     Computing kpt #:    14
     total cpu time spent up to now is        2.3 secs

     Computing kpt #:    15
     total cpu time spent up to now is        2.5 secs

     Computing kpt #:    16
     total cpu time spent up to now is        2.6 secs

     Computing kpt #:    17
     total cpu time spent up to now is        2.7 secs

     Computing kpt #:    18
     total cpu time spent up to now is        2.9 secs

     Computing kpt #:    19
     total cpu time spent up to now is        3.0 secs

     Computing kpt #:    20
     total cpu time spent up to now is        3.2 secs

     Computing kpt #:    21
     total cpu time spent up to now is        3.3 secs

     Computing kpt #:    22
     total cpu time spent up to now is        3.5 secs

     Computing kpt #:    23
     total cpu time spent up to now is        3.7 secs

     Computing kpt #:    24
     total cpu time spent up to now is        3.8 secs

     Computing kpt #:    25
     total cpu time spent up to now is        3.9 secs

     Computing kpt #:    26
     total cpu time spent up to now is        4.0 secs

     Computing kpt #:    27
     total cpu time spent up to now is        4.1 secs

     Computing kpt #:    28
     total cpu time spent up to now is        4.3 secs

     Computing kpt #:    29
     total cpu time spent up to now is        4.4 secs

     Computing kpt #:    30
     total cpu time spent up to now is        4.5 secs

     Computing kpt #:    31
     total cpu time spent up to now is        4.6 secs

     Computing kpt #:    32
     total cpu time spent up to now is        4.8 secs

     Computing kpt #:    33
     total cpu time spent up to now is        4.9 secs

     Computing kpt #:    34
     total cpu time spent up to now is        5.0 secs

     Computing kpt #:    35
     total cpu time spent up to now is        5.2 secs

     Computing kpt #:    36
     total cpu time spent up to now is        5.3 secs

     Computing kpt #:    37
     total cpu time spent up to now is        5.5 secs

     Computing kpt #:    38
     total cpu time spent up to now is        5.7 secs

     Computing kpt #:    39
     total cpu time spent up to now is        5.8 secs

     Computing kpt #:    40
     total cpu time spent up to now is        5.9 secs

     Computing kpt #:    41
     total cpu time spent up to now is        6.1 secs

     Computing kpt #:    42
     total cpu time spent up to now is        6.3 secs

     Computing kpt #:    43
     total cpu time spent up to now is        6.4 secs

     Computing kpt #:    44
     total cpu time spent up to now is        6.6 secs

     Computing kpt #:    45
     total cpu time spent up to now is        6.7 secs

     Computing kpt #:    46
     total cpu time spent up to now is        6.9 secs

     Computing kpt #:    47
     total cpu time spent up to now is        7.0 secs

     Computing kpt #:    48
     total cpu time spent up to now is        7.1 secs

     Computing kpt #:    49
     total cpu time spent up to now is        7.2 secs

     Computing kpt #:    50
     total cpu time spent up to now is        7.4 secs

     ethr =  2.50E-09,  avg # of iterations = 17.9

     total cpu time spent up to now is        7.4 secs

     End of band structure calculation

          k = 0.0000 0.0000 0.0000 (  2029 PWs)   bands (ev):

   -10.1258  -8.8252   0.7122   2.7586   5.9271   7.2336

          k = 0.0833 0.0481 0.0000 (  2011 PWs)   bands (ev):

   -10.0948  -8.8313   0.7852   2.6675   5.5400   7.0776

          k = 0.1667 0.0962 0.0000 (  2009 PWs)   bands (ev):

   -10.0059  -8.8516   1.0022   2.4176   4.8297   6.5666

          k = 0.2500 0.1443 0.0000 (  2009 PWs)   bands (ev):

    -9.8707  -8.8916   1.3554   2.0669   4.2127   5.9901

          k = 0.3333 0.1925 0.0000 (  2007 PWs)   bands (ev):

    -9.7098  -8.9553   1.7029   1.8255   3.8023   5.2282

          k = 0.4167 0.2406 0.0000 (  2010 PWs)   bands (ev):

    -9.5579  -9.0347   1.4309   2.3516   3.5846   4.4905

          k = 0.5000 0.2887 0.0000 (  2002 PWs)   bands (ev):

    -9.4849  -9.0809   1.3309   2.6641   3.5180   4.1010

          k = 0.4444 0.3849 0.0000 (  2006 PWs)   bands (ev):

    -9.4557  -9.0979   1.3775   2.7600   3.5300   4.0730

          k = 0.3889 0.4811 0.0000 (  2006 PWs)   bands (ev):

    -9.3740  -9.1535   1.4749   3.0450   3.5378   3.7546

          k = 0.3333 0.5774 0.0000 (  1998 PWs)   bands (ev):

    -9.2562  -9.2562   1.5173   3.5008   3.5008   3.5098

          k = 0.2857 0.4949 0.0000 (  2002 PWs)   bands (ev):

    -9.3841  -9.1444   1.5198   2.9690   3.4714   3.7335

          k = 0.2381 0.4124 0.0000 (  2002 PWs)   bands (ev):

    -9.5414  -9.0390   1.6013   2.3707   3.5372   4.2408

          k = 0.1905 0.3299 0.0000 (  2004 PWs)   bands (ev):

    -9.7120  -8.9522   1.8084   1.8108   3.7744   4.9071

          k = 0.1429 0.2474 0.0000 (  2017 PWs)   bands (ev):

    -9.8747  -8.8898   1.3434   2.1102   4.2166   5.6568

          k = 0.0952 0.1650 0.0000 (  2025 PWs)   bands (ev):

   -10.0082  -8.8510   0.9963   2.4286   4.8457   6.4342

          k = 0.0476 0.0825 0.0000 (  2007 PWs)   bands (ev):

   -10.0955  -8.8311   0.7837   2.6694   5.5471   7.0808

          k = 0.0000 0.0000 0.0000 (  2029 PWs)   bands (ev):

   -10.1258  -8.8252   0.7122   2.7586   5.9271   7.2336

          k = 0.0000 0.0000 0.1001 (  1999 PWs)   bands (ev):

   -10.0826  -8.8825   0.7415   2.6115   6.1622   7.3518

          k = 0.0000 0.0000 0.2003 (  1993 PWs)   bands (ev):

    -9.9575  -9.0416   0.8469   2.2449   6.8013   7.6471

          k = 0.0000 0.0000 0.3004 (  2029 PWs)   bands (ev):

    -9.7635  -9.2692   1.0576   1.7991   7.6136   7.9833

          k = 0.0000 0.0000 0.4005 (  2024 PWs)   bands (ev):

    -9.5233  -9.5233   1.3828   1.3828   8.0959   8.0960

          k = 0.0833 0.0481 0.4005 (  2020 PWs)   bands (ev):

    -9.5064  -9.5064   1.3518   1.3518   7.6963   7.6963

          k = 0.1667 0.0962 0.4005 (  2010 PWs)   bands (ev):

    -9.4595  -9.4595   1.2680   1.2680   6.8680   6.8680

          k = 0.2500 0.1443 0.4005 (  2010 PWs)   bands (ev):

    -9.3941  -9.3941   1.1554   1.1554   6.0030   6.0030

          k = 0.3333 0.1925 0.4005 (  2014 PWs)   bands (ev):

    -9.3268  -9.3268   1.0446   1.0447   5.3052   5.3052

          k = 0.4167 0.2406 0.4005 (  1998 PWs)   bands (ev):

    -9.2764  -9.2764   0.9644   0.9644   4.8618   4.8619

          k = 0.5000 0.2887 0.4005 (  2000 PWs)   bands (ev):

    -9.2577  -9.2577   0.9351   0.9351   4.7104   4.7105

          k = 0.4444 0.3849 0.4005 (  1998 PWs)   bands (ev):

    -9.2501  -9.2501   1.0131   1.0131   4.1602   4.1602

          k = 0.3889 0.4811 0.4005 (  1994 PWs)   bands (ev):

    -9.2337  -9.2337   1.2065   1.2065   3.3650   3.3650

          k = 0.3333 0.5774 0.4005 (  1998 PWs)   bands (ev):

    -9.2241  -9.2241   1.3337   1.3337   3.0065   3.0065

          k = 0.2963 0.5132 0.4005 (  1984 PWs)   bands (ev):

    -9.2304  -9.2304   1.2780   1.2781   3.1703   3.1703

          k = 0.2593 0.4491 0.4005 (  1986 PWs)   bands (ev):

    -9.2511  -9.2511   1.1796   1.1796   3.5924   3.5924

          k = 0.2222 0.3849 0.4005 (  1994 PWs)   bands (ev):

    -9.2867  -9.2867   1.1178   1.1178   4.1814   4.1815

          k = 0.1852 0.3208 0.4005 (  1998 PWs)   bands (ev):

    -9.3343  -9.3343   1.1161   1.1162   4.8870   4.8870

          k = 0.1481 0.2566 0.4005 (  2014 PWs)   bands (ev):

    -9.3880  -9.3880   1.1645   1.1646   5.6746   5.6746

          k = 0.1111 0.1925 0.4005 (  1998 PWs)   bands (ev):

    -9.4405  -9.4405   1.2387   1.2388   6.4981   6.4981

          k = 0.0741 0.1283 0.4005 (  2016 PWs)   bands (ev):

    -9.4842  -9.4842   1.3122   1.3123   7.2653   7.2653

          k = 0.0370 0.0642 0.4005 (  2024 PWs)   bands (ev):

    -9.5132  -9.5132   1.3642   1.3643   7.8457   7.8457

          k = 0.0000 0.0000 0.4005 (  2024 PWs)   bands (ev):

    -9.5233  -9.5233   1.3828   1.3828   8.0959   8.0960

          k = 0.5000 0.2887 0.4005 (  2000 PWs)   bands (ev):

    -9.2577  -9.2577   0.9351   0.9351   4.7104   4.7105

          k = 0.5000 0.2887 0.3204 (  2012 PWs)   bands (ev):

    -9.3234  -9.1968   0.8305   1.1977   4.1152   5.3908

          k = 0.5000 0.2887 0.2403 (  2002 PWs)   bands (ev):

    -9.3863  -9.1464   0.8714   1.6193   3.5988   5.8344

          k = 0.5000 0.2887 0.1602 (  2006 PWs)   bands (ev):

    -9.4385  -9.1099   1.0263   2.1930   3.1567   5.5419

          k = 0.5000 0.2887 0.0801 (  1998 PWs)   bands (ev):

    -9.4729  -9.0881   1.2263   2.8117   2.8997   4.8424

          k = 0.5000 0.2887 0.0000 (  2002 PWs)   bands (ev):

    -9.4849  -9.0809   1.3309   2.6641   3.5180   4.1010

          k = 0.3333 0.5774 0.0000 (  1998 PWs)   bands (ev):

    -9.2562  -9.2562   1.5173   3.5008   3.5008   3.5098

          k = 0.3333 0.5774 0.1001 (  2007 PWs)   bands (ev):

    -9.2515  -9.2515   1.6105   2.5845   2.5845   4.6297

          k = 0.3333 0.5774 0.2003 (  2004 PWs)   bands (ev):

    -9.2402  -9.2402   1.8900   1.8996   1.8996   4.8577

          k = 0.3333 0.5774 0.3004 (  1989 PWs)   bands (ev):

    -9.2288  -9.2288   1.4768   1.4768   2.3555   3.8417

          k = 0.3333 0.5774 0.4005 (  1998 PWs)   bands (ev):

    -9.2241  -9.2241   1.3337   1.3337   3.0065   3.0065

     Writing output data file pwscf.save

     init_run     :      0.14s CPU      0.13s WALL (       1 calls)
     electrons    :     13.61s CPU      7.14s WALL (       1 calls)

     Called by init_run:
     wfcinit      :      0.00s CPU      0.00s WALL (       1 calls)
     wfcinit:atom :      0.00s CPU      0.02s WALL (      50 calls)
     wfcinit:wfcr :      0.70s CPU      0.42s WALL (      50 calls)
     potinit      :      0.06s CPU      0.05s WALL (       1 calls)

     Called by electrons:
     c_bands      :     13.61s CPU      7.13s WALL (       1 calls)
     v_of_rho     :      0.03s CPU      0.04s WALL (       1 calls)
     v_h          :      0.00s CPU      0.00s WALL (       1 calls)
     v_xc         :      0.03s CPU      0.04s WALL (       1 calls)
     newd         :      0.00s CPU      0.00s WALL (       1 calls)

     Called by c_bands:
     init_us_2    :      0.05s CPU      0.02s WALL (      50 calls)
     cegterg      :     12.67s CPU      6.57s WALL (      63 calls)

     Called by sum_band:

     Called by *egterg:
     h_psi        :      9.02s CPU      4.76s WALL (    1010 calls)
     s_psi        :      0.22s CPU      0.12s WALL (    1010 calls)
     g_psi        :      0.14s CPU      0.08s WALL (     897 calls)
     cdiaghg      :      1.20s CPU      0.62s WALL (     947 calls)
     cegterg:over :      1.09s CPU      0.42s WALL (     897 calls)
     cegterg:upda :      0.67s CPU      0.34s WALL (     897 calls)
     cegterg:last :      0.44s CPU      0.20s WALL (     213 calls)

     Called by h_psi:
     h_psi:pot    :      8.83s CPU      4.69s WALL (    1010 calls)
     h_psi:calbec :      0.36s CPU      0.15s WALL (    1010 calls)
     vloc_psi     :      8.19s CPU      4.38s WALL (    1010 calls)
     add_vuspsi   :      0.27s CPU      0.13s WALL (    1010 calls)

     General routines
     calbec       :      0.34s CPU      0.14s WALL (    1010 calls)
     fft          :      0.03s CPU      0.02s WALL (      12 calls)
     ffts         :      0.00s CPU      0.00s WALL (       1 calls)
     fftw         :      6.19s CPU      3.51s WALL (    7754 calls)
     interpolate  :      0.02s CPU      0.00s WALL (       1 calls)
     davcio       :      0.00s CPU      0.00s WALL (      50 calls)

     Parallel routines
     fft_scatter  :      0.92s CPU      0.58s WALL (    7767 calls)

     PWSCF        :    14.11s CPU         7.63s WALL


   This run was terminated on:   6:12:49  26Feb2021            

=------------------------------------------------------------------------------=
   JOB DONE.
=------------------------------------------------------------------------------=
