
     Program PWSCF v.6.0 (svn rev. 13079) starts on 26Feb2021 at 19:25:57 

     This program is part of the open-source Quantum ESPRESSO suite
     for quantum simulation of materials; please cite
         "P. Giannozzi et al., J. Phys.:Condens. Matter 21 395502 (2009);
          URL http://www.quantum-espresso.org", 
     in publications or presentations arising from this work. More details at
     http://www.quantum-espresso.org/quote

     Parallel version (MPI), running on     1 processors
     Reading input from espresso.pwi
Warning: card &IONS ignored
Warning: card / ignored
Warning: card &CELL ignored
Warning: card / ignored

     Current dimensions of program PWSCF are:
     Max number of different atomic species (ntypx) = 10
     Max number of k-points (npk) =  40000
     Max angular momentum in pseudopotentials (lmaxx) =  3
     Message from routine input:
     WARNING: "startingwfc" set to atomic+random may spoil restart

     Atomic positions and unit cell read from directory:
     ./pwscf.save/


     IMPORTANT: XC functional enforced from input :
     Exchange-correlation      = PBE ( 1  4  3  4 0 0)
     Any further DFT definition will be discarded
     Please, verify this is what you really want


     Subspace diagonalization in iterative solution of the eigenvalue problem:
     a serial algorithm will be used


     G-vector sticks info
     --------------------
     sticks:   dense  smooth     PW     G-vecs:    dense   smooth      PW
     Sum         511     409    121                14485    10383    1797



     bravais-lattice index     =            0
     lattice parameter (alat)  =       6.0523  a.u.
     unit-cell volume          =     303.6274 (a.u.)^3
     number of atoms/cell      =            2
     number of atomic types    =            1
     number of electrons       =        24.00
     number of Kohn-Sham states=           16
     kinetic-energy cutoff     =      40.0000  Ry
     charge density cutoff     =     200.0000  Ry
     Exchange-correlation      = PBE ( 1  4  3  4 0 0)

     celldm(1)=   6.052281  celldm(2)=   0.000000  celldm(3)=   0.000000
     celldm(4)=   0.000000  celldm(5)=   0.000000  celldm(6)=   0.000000

     crystal axes: (cart. coord. in units of alat)
               a(1) = (   1.000000   0.000000   0.000000 )  
               a(2) = (  -0.500000   0.866025   0.000000 )  
               a(3) = (   0.000000   0.000000   1.581441 )  

     reciprocal axes: (cart. coord. in units 2 pi/alat)
               b(1) = (  1.000000  0.577350 -0.000000 )  
               b(2) = (  0.000000  1.154701  0.000000 )  
               b(3) = (  0.000000 -0.000000  0.632335 )  


     PseudoPot. # 1 for Hf read from file:
     /home/inukai/tango/tests/1element/qe_fit_v3_Hf/../pseudo/hf_pbe_v1.uspp.F.UPF
     MD5 check sum: 8ee9378dfe14276e333edf04c5e4aa26
     Pseudo is Ultrasoft + core correction, Zval = 12.0
     Generated by new atomic code, or converted to UPF format
     Using radial grid of  921 points,  8 beta functions with: 
                l(1) =   0
                l(2) =   0
                l(3) =   0
                l(4) =   1
                l(5) =   1
                l(6) =   2
                l(7) =   2
                l(8) =   3
     Q(r) pseudized with  6 coefficients,  rinner =    1.200   1.200   1.200
                                                       1.200   1.200   1.200
                                                       1.200

     atomic species   valence    mass     pseudopotential
        Hf            12.00   178.49000     Hf( 1.00)

     12 Sym. Ops., with inversion, found
          (note: 12 additional sym.ops. were found but ignored
           their fractional translations are incommensurate with FFT grid)

                                    s                        frac. trans.

      isym =  1     identity                                     

 cryst.   s( 1) = (     1          0          0      )
                  (     0          1          0      )
                  (     0          0          1      )

 cart.    s( 1) = (  1.0000000  0.0000000  0.0000000 )
                  (  0.0000000  1.0000000  0.0000000 )
                  (  0.0000000  0.0000000  1.0000000 )


      isym =  2     180 deg rotation - cart. axis [1,0,0]        

 cryst.   s( 2) = (     1          0          0      )
                  (    -1         -1          0      )
                  (     0          0         -1      )

 cart.    s( 2) = (  1.0000000  0.0000000  0.0000000 )
                  (  0.0000000 -1.0000000  0.0000000 )
                  (  0.0000000  0.0000000 -1.0000000 )


      isym =  3     120 deg rotation - cryst. axis [0,0,1]       

 cryst.   s( 3) = (     0          1          0      )
                  (    -1         -1          0      )
                  (     0          0          1      )

 cart.    s( 3) = ( -0.5000000 -0.8660254  0.0000000 )
                  (  0.8660254 -0.5000000  0.0000000 )
                  (  0.0000000  0.0000000  1.0000000 )


      isym =  4     120 deg rotation - cryst. axis [0,0,-1]      

 cryst.   s( 4) = (    -1         -1          0      )
                  (     1          0          0      )
                  (     0          0          1      )

 cart.    s( 4) = ( -0.5000000  0.8660254  0.0000000 )
                  ( -0.8660254 -0.5000000  0.0000000 )
                  (  0.0000000  0.0000000  1.0000000 )


      isym =  5     180 deg rotation - cryst. axis [0,1,0]       

 cryst.   s( 5) = (    -1         -1          0      )
                  (     0          1          0      )
                  (     0          0         -1      )

 cart.    s( 5) = ( -0.5000000 -0.8660254  0.0000000 )
                  ( -0.8660254  0.5000000  0.0000000 )
                  (  0.0000000  0.0000000 -1.0000000 )


      isym =  6     180 deg rotation - cryst. axis [1,1,0]       

 cryst.   s( 6) = (     0          1          0      )
                  (     1          0          0      )
                  (     0          0         -1      )

 cart.    s( 6) = ( -0.5000000  0.8660254  0.0000000 )
                  (  0.8660254  0.5000000  0.0000000 )
                  (  0.0000000  0.0000000 -1.0000000 )


      isym =  7     inversion                                    

 cryst.   s( 7) = (    -1          0          0      )
                  (     0         -1          0      )
                  (     0          0         -1      )

 cart.    s( 7) = ( -1.0000000 -0.0000000  0.0000000 )
                  (  0.0000000 -1.0000000  0.0000000 )
                  (  0.0000000  0.0000000 -1.0000000 )


      isym =  8     inv. 180 deg rotation - cart. axis [1,0,0]   

 cryst.   s( 8) = (    -1          0          0      )
                  (     1          1          0      )
                  (     0          0          1      )

 cart.    s( 8) = ( -1.0000000 -0.0000000  0.0000000 )
                  (  0.0000000  1.0000000  0.0000000 )
                  (  0.0000000  0.0000000  1.0000000 )


      isym =  9     inv. 120 deg rotation - cryst. axis [0,0,1]  

 cryst.   s( 9) = (     0         -1          0      )
                  (     1          1          0      )
                  (     0          0         -1      )

 cart.    s( 9) = (  0.5000000  0.8660254  0.0000000 )
                  ( -0.8660254  0.5000000  0.0000000 )
                  (  0.0000000  0.0000000 -1.0000000 )


      isym = 10     inv. 120 deg rotation - cryst. axis [0,0,-1] 

 cryst.   s(10) = (     1          1          0      )
                  (    -1          0          0      )
                  (     0          0         -1      )

 cart.    s(10) = (  0.5000000 -0.8660254  0.0000000 )
                  (  0.8660254  0.5000000  0.0000000 )
                  (  0.0000000  0.0000000 -1.0000000 )


      isym = 11     inv. 180 deg rotation - cryst. axis [0,1,0]  

 cryst.   s(11) = (     1          1          0      )
                  (     0         -1          0      )
                  (     0          0          1      )

 cart.    s(11) = (  0.5000000  0.8660254  0.0000000 )
                  (  0.8660254 -0.5000000  0.0000000 )
                  (  0.0000000  0.0000000  1.0000000 )


      isym = 12     inv. 180 deg rotation - cryst. axis [1,1,0]  

 cryst.   s(12) = (     0         -1          0      )
                  (    -1          0          0      )
                  (     0          0          1      )

 cart.    s(12) = (  0.5000000 -0.8660254  0.0000000 )
                  ( -0.8660254 -0.5000000  0.0000000 )
                  (  0.0000000  0.0000000  1.0000000 )


   Cartesian axes

     site n.     atom                  positions (alat units)
         1           Hf  tau(   1) = (   0.0000000   0.5773503   1.1860810  )
         2           Hf  tau(   2) = (   0.5000000   0.2886751   0.3953603  )

   Crystallographic axes

     site n.     atom                  positions (cryst. coord.)
         1           Hf  tau(   1) = (  0.3333333  0.6666667  0.7500000  )
         2           Hf  tau(   2) = (  0.6666667  0.3333333  0.2500000  )

     number of k points=    50  gaussian smearing, width (Ry)=  0.0010
                       cart. coord. in units 2pi/alat
        k(    1) = (   0.0000000   0.0000000   0.0000000), wk =   0.0400000
        k(    2) = (   0.0833333   0.0481125   0.0000000), wk =   0.0400000
        k(    3) = (   0.1666667   0.0962250   0.0000000), wk =   0.0400000
        k(    4) = (   0.2500000   0.1443376   0.0000000), wk =   0.0400000
        k(    5) = (   0.3333333   0.1924501   0.0000000), wk =   0.0400000
        k(    6) = (   0.4166667   0.2405626   0.0000000), wk =   0.0400000
        k(    7) = (   0.5000000   0.2886751   0.0000000), wk =   0.0400000
        k(    8) = (   0.4444444   0.3849002   0.0000000), wk =   0.0400000
        k(    9) = (   0.3888889   0.4811252   0.0000000), wk =   0.0400000
        k(   10) = (   0.3333333   0.5773503   0.0000000), wk =   0.0400000
        k(   11) = (   0.2916667   0.5051815   0.0000000), wk =   0.0400000
        k(   12) = (   0.2500000   0.4330127   0.0000000), wk =   0.0400000
        k(   13) = (   0.2083333   0.3608439   0.0000000), wk =   0.0400000
        k(   14) = (   0.1666667   0.2886751   0.0000000), wk =   0.0400000
        k(   15) = (   0.1250000   0.2165064   0.0000000), wk =   0.0400000
        k(   16) = (   0.0833333   0.1443376   0.0000000), wk =   0.0400000
        k(   17) = (   0.0416667   0.0721688   0.0000000), wk =   0.0400000
        k(   18) = (   0.0000000   0.0000000   0.0000000), wk =   0.0400000
        k(   19) = (   0.0000000   0.0000000   0.1053891), wk =   0.0400000
        k(   20) = (   0.0000000   0.0000000   0.2107782), wk =   0.0400000
        k(   21) = (   0.0000000   0.0000000   0.3161673), wk =   0.0400000
        k(   22) = (   0.0714286   0.0412393   0.3161673), wk =   0.0400000
        k(   23) = (   0.1428571   0.0824786   0.3161673), wk =   0.0400000
        k(   24) = (   0.2142857   0.1237179   0.3161673), wk =   0.0400000
        k(   25) = (   0.2857143   0.1649572   0.3161673), wk =   0.0400000
        k(   26) = (   0.3571429   0.2061965   0.3161673), wk =   0.0400000
        k(   27) = (   0.4285714   0.2474358   0.3161673), wk =   0.0400000
        k(   28) = (   0.5000000   0.2886751   0.3161673), wk =   0.0400000
        k(   29) = (   0.4583333   0.3608439   0.3161673), wk =   0.0400000
        k(   30) = (   0.4166667   0.4330127   0.3161673), wk =   0.0400000
        k(   31) = (   0.3750000   0.5051815   0.3161673), wk =   0.0400000
        k(   32) = (   0.3333333   0.5773503   0.3161673), wk =   0.0400000
        k(   33) = (   0.2962963   0.5132002   0.3161673), wk =   0.0400000
        k(   34) = (   0.2592593   0.4490502   0.3161673), wk =   0.0400000
        k(   35) = (   0.2222222   0.3849002   0.3161673), wk =   0.0400000
        k(   36) = (   0.1851852   0.3207501   0.3161673), wk =   0.0400000
        k(   37) = (   0.1481481   0.2566001   0.3161673), wk =   0.0400000
        k(   38) = (   0.1111111   0.1924501   0.3161673), wk =   0.0400000
        k(   39) = (   0.0740741   0.1283001   0.3161673), wk =   0.0400000
        k(   40) = (   0.0370370   0.0641500   0.3161673), wk =   0.0400000
        k(   41) = (   0.0000000   0.0000000   0.3161673), wk =   0.0400000
        k(   42) = (   0.5000000   0.2886751   0.3161673), wk =   0.0400000
        k(   43) = (   0.5000000   0.2886751   0.2371255), wk =   0.0400000
        k(   44) = (   0.5000000   0.2886751   0.1580836), wk =   0.0400000
        k(   45) = (   0.5000000   0.2886751   0.0790418), wk =   0.0400000
        k(   46) = (   0.5000000   0.2886751   0.0000000), wk =   0.0400000
        k(   47) = (   0.3333333   0.5773503   0.0000000), wk =   0.0400000
        k(   48) = (   0.3333333   0.5773503   0.1053891), wk =   0.0400000
        k(   49) = (   0.3333333   0.5773503   0.2107782), wk =   0.0400000
        k(   50) = (   0.3333333   0.5773503   0.3161673), wk =   0.0400000

                       cryst. coord.
        k(    1) = (   0.0000000   0.0000000   0.0000000), wk =   0.0400000
        k(    2) = (   0.0833333   0.0000000   0.0000000), wk =   0.0400000
        k(    3) = (   0.1666667   0.0000000   0.0000000), wk =   0.0400000
        k(    4) = (   0.2500000   0.0000000   0.0000000), wk =   0.0400000
        k(    5) = (   0.3333333   0.0000000   0.0000000), wk =   0.0400000
        k(    6) = (   0.4166667   0.0000000   0.0000000), wk =   0.0400000
        k(    7) = (   0.5000000   0.0000000   0.0000000), wk =   0.0400000
        k(    8) = (   0.4444444   0.1111111   0.0000000), wk =   0.0400000
        k(    9) = (   0.3888889   0.2222222   0.0000000), wk =   0.0400000
        k(   10) = (   0.3333333   0.3333333   0.0000000), wk =   0.0400000
        k(   11) = (   0.2916667   0.2916667   0.0000000), wk =   0.0400000
        k(   12) = (   0.2500000   0.2500000   0.0000000), wk =   0.0400000
        k(   13) = (   0.2083333   0.2083333   0.0000000), wk =   0.0400000
        k(   14) = (   0.1666667   0.1666667   0.0000000), wk =   0.0400000
        k(   15) = (   0.1250000   0.1250000   0.0000000), wk =   0.0400000
        k(   16) = (   0.0833333   0.0833333   0.0000000), wk =   0.0400000
        k(   17) = (   0.0416667   0.0416667   0.0000000), wk =   0.0400000
        k(   18) = (   0.0000000   0.0000000   0.0000000), wk =   0.0400000
        k(   19) = (   0.0000000   0.0000000   0.1666667), wk =   0.0400000
        k(   20) = (   0.0000000   0.0000000   0.3333333), wk =   0.0400000
        k(   21) = (   0.0000000   0.0000000   0.5000000), wk =   0.0400000
        k(   22) = (   0.0714286   0.0000000   0.5000000), wk =   0.0400000
        k(   23) = (   0.1428571   0.0000000   0.5000000), wk =   0.0400000
        k(   24) = (   0.2142857   0.0000000   0.5000000), wk =   0.0400000
        k(   25) = (   0.2857143   0.0000000   0.5000000), wk =   0.0400000
        k(   26) = (   0.3571429   0.0000000   0.5000000), wk =   0.0400000
        k(   27) = (   0.4285714   0.0000000   0.5000000), wk =   0.0400000
        k(   28) = (   0.5000000   0.0000000   0.5000000), wk =   0.0400000
        k(   29) = (   0.4583333   0.0833333   0.5000000), wk =   0.0400000
        k(   30) = (   0.4166667   0.1666667   0.5000000), wk =   0.0400000
        k(   31) = (   0.3750000   0.2500000   0.5000000), wk =   0.0400000
        k(   32) = (   0.3333333   0.3333333   0.5000000), wk =   0.0400000
        k(   33) = (   0.2962963   0.2962963   0.5000000), wk =   0.0400000
        k(   34) = (   0.2592593   0.2592593   0.5000000), wk =   0.0400000
        k(   35) = (   0.2222222   0.2222222   0.5000000), wk =   0.0400000
        k(   36) = (   0.1851852   0.1851852   0.5000000), wk =   0.0400000
        k(   37) = (   0.1481481   0.1481481   0.5000000), wk =   0.0400000
        k(   38) = (   0.1111111   0.1111111   0.5000000), wk =   0.0400000
        k(   39) = (   0.0740741   0.0740741   0.5000000), wk =   0.0400000
        k(   40) = (   0.0370370   0.0370370   0.5000000), wk =   0.0400000
        k(   41) = (   0.0000000   0.0000000   0.5000000), wk =   0.0400000
        k(   42) = (   0.5000000   0.0000000   0.5000000), wk =   0.0400000
        k(   43) = (   0.5000000   0.0000000   0.3750000), wk =   0.0400000
        k(   44) = (   0.5000000   0.0000000   0.2500000), wk =   0.0400000
        k(   45) = (   0.5000000   0.0000000   0.1250000), wk =   0.0400000
        k(   46) = (   0.5000000   0.0000000   0.0000000), wk =   0.0400000
        k(   47) = (   0.3333333   0.3333333   0.0000000), wk =   0.0400000
        k(   48) = (   0.3333333   0.3333333   0.1666667), wk =   0.0400000
        k(   49) = (   0.3333333   0.3333333   0.3333333), wk =   0.0400000
        k(   50) = (   0.3333333   0.3333333   0.5000000), wk =   0.0400000

     Dense  grid:    14485 G-vectors     FFT dimensions: (  27,  27,  45)

     Smooth grid:    10383 G-vectors     FFT dimensions: (  25,  25,  40)

     Estimated max dynamical RAM per process >      23.86Mb

     Check: negative/imaginary core charge=   -0.000011    0.000000

     The potential is recalculated from file :
     ./pwscf.save/charge-density.dat


     negative rho (up, down):  2.194E-01 0.000E+00
     Starting wfc are   26 randomized atomic wfcs

     Band Structure Calculation
     Davidson diagonalization with overlap

     Computing kpt #:     1
     total cpu time spent up to now is        1.2 secs

     Computing kpt #:     2
     total cpu time spent up to now is        1.5 secs

     Computing kpt #:     3
     total cpu time spent up to now is        1.8 secs

     Computing kpt #:     4
     total cpu time spent up to now is        2.1 secs

     Computing kpt #:     5
     total cpu time spent up to now is        2.6 secs

     Computing kpt #:     6
     total cpu time spent up to now is        3.1 secs

     Computing kpt #:     7
     total cpu time spent up to now is        3.5 secs

     Computing kpt #:     8
     total cpu time spent up to now is        3.8 secs

     Computing kpt #:     9
     total cpu time spent up to now is        4.1 secs

     Computing kpt #:    10
     total cpu time spent up to now is        4.5 secs

     Computing kpt #:    11
     total cpu time spent up to now is        4.9 secs

     Computing kpt #:    12
     total cpu time spent up to now is        5.2 secs

     Computing kpt #:    13
     total cpu time spent up to now is        5.4 secs

     Computing kpt #:    14
     total cpu time spent up to now is        5.8 secs

     Computing kpt #:    15
     total cpu time spent up to now is        6.1 secs

     Computing kpt #:    16
     total cpu time spent up to now is        6.4 secs

     Computing kpt #:    17
     total cpu time spent up to now is        6.7 secs

     Computing kpt #:    18
     total cpu time spent up to now is        7.0 secs

     Computing kpt #:    19
     total cpu time spent up to now is        7.3 secs

     Computing kpt #:    20
     total cpu time spent up to now is        7.6 secs

     Computing kpt #:    21
     total cpu time spent up to now is        7.8 secs

     Computing kpt #:    22
     total cpu time spent up to now is        8.1 secs

     Computing kpt #:    23
     total cpu time spent up to now is        8.3 secs

     Computing kpt #:    24
     total cpu time spent up to now is        8.6 secs

     Computing kpt #:    25
     total cpu time spent up to now is        8.9 secs

     Computing kpt #:    26
     total cpu time spent up to now is        9.2 secs

     Computing kpt #:    27
     total cpu time spent up to now is        9.4 secs

     Computing kpt #:    28
     total cpu time spent up to now is        9.7 secs

     Computing kpt #:    29
     total cpu time spent up to now is       10.0 secs

     Computing kpt #:    30
     total cpu time spent up to now is       10.2 secs

     Computing kpt #:    31
     total cpu time spent up to now is       10.5 secs

     Computing kpt #:    32
     total cpu time spent up to now is       10.8 secs

     Computing kpt #:    33
     total cpu time spent up to now is       11.0 secs

     Computing kpt #:    34
     total cpu time spent up to now is       11.3 secs

     Computing kpt #:    35
     total cpu time spent up to now is       11.6 secs

     Computing kpt #:    36
     total cpu time spent up to now is       11.9 secs

     Computing kpt #:    37
     total cpu time spent up to now is       12.1 secs

     Computing kpt #:    38
     total cpu time spent up to now is       12.4 secs

     Computing kpt #:    39
     total cpu time spent up to now is       12.7 secs

     Computing kpt #:    40
     total cpu time spent up to now is       12.9 secs

     Computing kpt #:    41
     total cpu time spent up to now is       13.2 secs

     Computing kpt #:    42
     total cpu time spent up to now is       13.4 secs

     Computing kpt #:    43
     total cpu time spent up to now is       13.7 secs

     Computing kpt #:    44
     total cpu time spent up to now is       14.0 secs

     Computing kpt #:    45
     total cpu time spent up to now is       14.4 secs

     Computing kpt #:    46
     total cpu time spent up to now is       14.7 secs

     Computing kpt #:    47
     total cpu time spent up to now is       15.1 secs

     Computing kpt #:    48
     total cpu time spent up to now is       15.5 secs

     Computing kpt #:    49
     total cpu time spent up to now is       15.8 secs

     Computing kpt #:    50
     total cpu time spent up to now is       16.0 secs

     ethr =  4.17E-10,  avg # of iterations = 15.7

     total cpu time spent up to now is       16.0 secs

     End of band structure calculation

          k = 0.0000 0.0000 0.0000 (  1291 PWs)   bands (ev):

   -47.2324 -47.1627 -16.3555 -15.6324 -15.6324 -15.5063 -15.5063 -15.4989
     7.3105  10.9818  15.2820  15.8592  15.8592  16.1464  16.6773  16.6773

          k = 0.0833 0.0481 0.0000 (  1291 PWs)   bands (ev):

   -47.2290 -47.1614 -16.3377 -15.6702 -15.6451 -15.5462 -15.5112 -15.5069
     7.5186  11.1872  15.0139  15.3629  16.0557  16.4236  16.5520  16.8636

          k = 0.1667 0.0962 0.0000 (  1297 PWs)   bands (ev):

   -47.2196 -47.1581 -16.2870 -15.7728 -15.6787 -15.6515 -15.5318 -15.5260
     8.1128  11.7351  14.3671  14.6670  15.9155  16.5824  16.6345  16.6778

          k = 0.2500 0.1443 0.0000 (  1289 PWs)   bands (ev):

   -47.2061 -47.1542 -16.2100 -15.9132 -15.7892 -15.7225 -15.5726 -15.5477
     9.0010  12.3246  13.6329  14.1356  15.4785  16.1548  16.2047  17.5607

          k = 0.3333 0.1925 0.0000 (  1302 PWs)   bands (ev):

   -47.1915 -47.1513 -16.1194 -16.0535 -15.9213 -15.7646 -15.6275 -15.5705
    10.0186  12.4012  13.0116  13.9634  15.5970  15.8144  15.8222  18.7592

          k = 0.4167 0.2406 0.0000 (  1308 PWs)   bands (ev):

   -47.1793 -47.1507 -16.1555 -16.0343 -16.0147 -15.7946 -15.6861 -15.5877
    10.9110  12.1341  12.6063  13.8735  15.5630  15.6131  16.1272  20.0008

          k = 0.5000 0.2887 0.0000 (  1312 PWs)   bands (ev):

   -47.1741 -47.1512 -16.1927 -16.0481 -15.9941 -15.8056 -15.7168 -15.5941
    11.3282  11.9462  12.4664  13.8506  15.4766  15.5418  16.3515  20.5445

          k = 0.4444 0.3849 0.0000 (  1300 PWs)   bands (ev):

   -47.1717 -47.1516 -16.1737 -16.0302 -15.9753 -15.8404 -15.7311 -15.6381
    11.5916  12.2223  12.5002  13.7048  15.3085  15.4697  16.4071  20.2023

          k = 0.3889 0.4811 0.0000 (  1308 PWs)   bands (ev):

   -47.1656 -47.1534 -16.1248 -15.9841 -15.9228 -15.9203 -15.7745 -15.7437
    12.2372  12.5557  12.8459  13.3546  15.0415  15.2747  16.5631  19.6797

          k = 0.3333 0.5774 0.0000 (  1314 PWs)   bands (ev):

   -47.1583 -47.1583 -16.0904 -15.9588 -15.9588 -15.8461 -15.8461 -15.8158
    12.5659  12.8741  12.8741  13.2337  15.0473  15.0473  16.7146  19.8653

          k = 0.2917 0.5052 0.0000 (  1308 PWs)   bands (ev):

   -47.1649 -47.1537 -16.0956 -15.9931 -15.9162 -15.9135 -15.7812 -15.7801
    12.3593  12.5885  13.1473  13.1562  14.9452  15.2829  16.5172  19.4220

          k = 0.2500 0.4330 0.0000 (  1292 PWs)   bands (ev):

   -47.1742 -47.1511 -16.0754 -16.0112 -15.9967 -15.8463 -15.7191 -15.7133
    11.5234  12.7077  13.1318  13.2744  14.9667  15.6398  15.9902  18.8396

          k = 0.2083 0.3608 0.0000 (  1284 PWs)   bands (ev):

   -47.1860 -47.1508 -16.0826 -16.0102 -15.9864 -15.7785 -15.6563 -15.6511
    10.5212  12.9741  13.1996  13.3125  15.1475  15.4896  16.0328  18.2523

          k = 0.1667 0.2887 0.0000 (  1292 PWs)   bands (ev):

   -47.1990 -47.1526 -16.1673 -15.9204 -15.9055 -15.7175 -15.6008 -15.5974
     9.5199  12.8083  13.3992  13.6840  15.3650  15.4966  16.3953  17.7086

          k = 0.1250 0.2165 0.0000 (  1300 PWs)   bands (ev):

   -47.2118 -47.1557 -16.2432 -15.8280 -15.7833 -15.6637 -15.5571 -15.5545
     8.6264  12.1851  13.9562  14.2139  15.6317  15.9920  16.6960  17.2186

          k = 0.0833 0.1443 0.0000 (  1312 PWs)   bands (ev):

   -47.2226 -47.1591 -16.3036 -15.7331 -15.6847 -15.6044 -15.5269 -15.5236
     7.9206  11.5702  14.5675  14.8371  16.0789  16.4660  16.5683  16.8337

          k = 0.0417 0.0722 0.0000 (  1301 PWs)   bands (ev):

   -47.2299 -47.1617 -16.3421 -15.6602 -15.6430 -15.5358 -15.5108 -15.5051
     7.4671  11.1369  15.0784  15.4509  16.0072  16.4580  16.5040  16.8213

          k = 0.0000 0.0000 0.0000 (  1291 PWs)   bands (ev):

   -47.2324 -47.1627 -16.3555 -15.6324 -15.6324 -15.5063 -15.5063 -15.4989
     7.3105  10.9818  15.2820  15.8592  15.8592  16.1464  16.6773  16.6773

          k = 0.0000 0.0000 0.1054 (  1279 PWs)   bands (ev):

   -47.2278 -47.1674 -16.3013 -15.6239 -15.6239 -15.5604 -15.5147 -15.5147
     7.5632  10.8359  14.9652  15.7346  15.7346  15.9252  16.4763  16.4763

          k = 0.0000 0.0000 0.2108 (  1285 PWs)   bands (ev):

   -47.2151 -47.1802 -16.1518 -15.7246 -15.6011 -15.6011 -15.5381 -15.5381
     8.2723  10.2614  14.6268  15.3845  15.6340  15.6340  16.0752  16.0752

          k = 0.0000 0.0000 0.3162 (  1256 PWs)   bands (ev):

   -47.1977 -47.1977 -15.9413 -15.9413 -15.5695 -15.5695 -15.5695 -15.5695
     9.2779   9.2779  14.8294  14.8294  15.7506  15.7506  15.7506  15.7506

          k = 0.0714 0.0412 0.3162 (  1268 PWs)   bands (ev):

   -47.1959 -47.1959 -15.9465 -15.9465 -15.5884 -15.5884 -15.5761 -15.5761
     9.4135   9.4135  14.7099  14.7099  15.6908  15.6908  15.8612  15.8612

          k = 0.1429 0.0825 0.3162 (  1276 PWs)   bands (ev):

   -47.1911 -47.1911 -15.9672 -15.9672 -15.6339 -15.6339 -15.5947 -15.5947
     9.7916   9.7916  14.4281  14.4281  15.5149  15.5149  16.1718  16.1718

          k = 0.2143 0.1237 0.3162 (  1286 PWs)   bands (ev):

   -47.1841 -47.1841 -16.0160 -16.0160 -15.6790 -15.6790 -15.6211 -15.6211
    10.3187  10.3187  14.1248  14.1248  15.2995  15.2995  16.6052  16.6052

          k = 0.2857 0.1650 0.3162 (  1296 PWs)   bands (ev):

   -47.1763 -47.1763 -16.0935 -16.0935 -15.7034 -15.7034 -15.6503 -15.6503
    10.8272  10.8273  13.9096  13.9096  15.1994  15.1994  17.0094  17.0094

          k = 0.3571 0.2062 0.3162 (  1298 PWs)   bands (ev):

   -47.1693 -47.1693 -16.1766 -16.1766 -15.7098 -15.7098 -15.6764 -15.6764
    11.1461  11.1461  13.7950  13.7950  15.3528  15.3528  17.2373  17.2373

          k = 0.4286 0.2474 0.3162 (  1298 PWs)   bands (ev):

   -47.1644 -47.1644 -16.2381 -16.2381 -15.7093 -15.7093 -15.6943 -15.6943
    11.2639  11.2639  13.7269  13.7269  15.6637  15.6637  17.3097  17.3098

          k = 0.5000 0.2887 0.3162 (  1300 PWs)   bands (ev):

   -47.1626 -47.1626 -16.2606 -16.2606 -15.7084 -15.7084 -15.7007 -15.7007
    11.2859  11.2859  13.7007  13.7007  15.8193  15.8193  17.3214  17.3214

          k = 0.4583 0.3608 0.3162 (  1300 PWs)   bands (ev):

   -47.1621 -47.1621 -16.2496 -16.2496 -15.7624 -15.7624 -15.6686 -15.6686
    11.4341  11.4341  13.7808  13.7809  15.4232  15.4232  17.4087  17.4087

          k = 0.4167 0.4330 0.3162 (  1306 PWs)   bands (ev):

   -47.1606 -47.1606 -16.2190 -16.2190 -15.8402 -15.8402 -15.6487 -15.6487
    11.8439  11.8439  13.9622  13.9622  14.7007  14.7007  17.3314  17.3314

          k = 0.3750 0.5052 0.3162 (  1322 PWs)   bands (ev):

   -47.1590 -47.1590 -16.1799 -16.1799 -15.9186 -15.9186 -15.6388 -15.6388
    12.4194  12.4194  13.7302  13.7302  14.4077  14.4077  17.1915  17.1915

          k = 0.3333 0.5774 0.3162 (  1302 PWs)   bands (ev):

   -47.1583 -47.1583 -16.1594 -16.1594 -15.9550 -15.9550 -15.6356 -15.6356
    12.9252  12.9252  13.2165  13.2165  14.4632  14.4632  17.1964  17.1964

          k = 0.2963 0.5132 0.3162 (  1312 PWs)   bands (ev):

   -47.1591 -47.1591 -16.1701 -16.1701 -15.9288 -15.9288 -15.6378 -15.6378
    12.5397  12.5397  13.5873  13.5873  14.4449  14.4450  17.1028  17.1028

          k = 0.2593 0.4491 0.3162 (  1304 PWs)   bands (ev):

   -47.1617 -47.1617 -16.1760 -16.1760 -15.8733 -15.8733 -15.6428 -15.6428
    12.1062  12.1063  13.8539  13.8540  14.5112  14.5112  16.9102  16.9102

          k = 0.2222 0.3849 0.3162 (  1302 PWs)   bands (ev):

   -47.1662 -47.1662 -16.1563 -16.1563 -15.8119 -15.8119 -15.6481 -15.6481
    11.6871  11.6871  13.8927  13.8927  14.6827  14.6827  16.8534  16.8535

          k = 0.1852 0.3208 0.3162 (  1298 PWs)   bands (ev):

   -47.1724 -47.1724 -16.1100 -16.1100 -15.7558 -15.7558 -15.6484 -15.6484
    11.2243  11.2244  13.9036  13.9036  14.8579  14.8579  16.9123  16.9123

          k = 0.1481 0.2566 0.3162 (  1288 PWs)   bands (ev):

   -47.1794 -47.1794 -16.0499 -16.0499 -15.7100 -15.7100 -15.6364 -15.6364
    10.6991  10.6991  14.0060  14.0060  15.0690  15.0690  16.8135  16.8135

          k = 0.1111 0.1925 0.3162 (  1284 PWs)   bands (ev):

   -47.1864 -47.1864 -15.9956 -15.9956 -15.6685 -15.6685 -15.6135 -15.6135
    10.1623  10.1623  14.2199  14.2199  15.3180  15.3180  16.4730  16.4730

          k = 0.0741 0.1283 0.3162 (  1278 PWs)   bands (ev):

   -47.1923 -47.1923 -15.9609 -15.9609 -15.6235 -15.6235 -15.5906 -15.5906
     9.6994   9.6994  14.4931  14.4932  15.5502  15.5502  16.0987  16.0987

          k = 0.0370 0.0642 0.3162 (  1266 PWs)   bands (ev):

   -47.1963 -47.1963 -15.9454 -15.9454 -15.5849 -15.5849 -15.5749 -15.5749
     9.3876   9.3877  14.7318  14.7318  15.7021  15.7021  15.8404  15.8404

          k = 0.0000 0.0000 0.3162 (  1256 PWs)   bands (ev):

   -47.1977 -47.1977 -15.9413 -15.9413 -15.5695 -15.5695 -15.5695 -15.5695
     9.2779   9.2779  14.8294  14.8294  15.7506  15.7506  15.7506  15.7506

          k = 0.5000 0.2887 0.3162 (  1300 PWs)   bands (ev):

   -47.1626 -47.1626 -16.2606 -16.2606 -15.7084 -15.7084 -15.7007 -15.7007
    11.2859  11.2859  13.7007  13.7007  15.8193  15.8193  17.3214  17.3214

          k = 0.5000 0.2887 0.2371 (  1302 PWs)   bands (ev):

   -47.1670 -47.1583 -16.2779 -16.2127 -15.7728 -15.7411 -15.6765 -15.6601
    11.0827  11.6085  13.4385  13.7497  15.6441  16.0670  16.5333  18.2875

          k = 0.5000 0.2887 0.1581 (  1294 PWs)   bands (ev):

   -47.1708 -47.1545 -16.2619 -16.1448 -15.8595 -15.7750 -15.6780 -15.6252
    11.0616  11.8805  13.3218  13.3735  15.8729  15.9524  16.0286  19.3772

          k = 0.5000 0.2887 0.0790 (  1298 PWs)   bands (ev):

   -47.1732 -47.1521 -16.2213 -16.0783 -15.9480 -15.7976 -15.7014 -15.6021
    11.2024  11.9528  12.7543  13.6376  15.5965  15.7421  16.2082  20.3919

          k = 0.5000 0.2887 0.0000 (  1312 PWs)   bands (ev):

   -47.1741 -47.1512 -16.1927 -16.0481 -15.9941 -15.8056 -15.7168 -15.5941
    11.3282  11.9462  12.4664  13.8506  15.4766  15.5418  16.3515  20.5445

          k = 0.3333 0.5774 0.0000 (  1314 PWs)   bands (ev):

   -47.1583 -47.1583 -16.0904 -15.9588 -15.9588 -15.8461 -15.8461 -15.8158
    12.5659  12.8741  12.8741  13.2337  15.0473  15.0473  16.7146  19.8653

          k = 0.3333 0.5774 0.1054 (  1329 PWs)   bands (ev):

   -47.1583 -47.1583 -16.0725 -16.0411 -16.0411 -15.8349 -15.7617 -15.7617
    12.6860  12.8884  12.8884  13.2577  14.8739  14.8739  16.6979  19.4846

          k = 0.3333 0.5774 0.2108 (  1302 PWs)   bands (ev):

   -47.1583 -47.1583 -16.1272 -16.1272 -16.0231 -15.8859 -15.6702 -15.6702
    12.9143  12.9143  12.9700  13.2892  14.5856  14.5856  16.7662  18.1555

          k = 0.3333 0.5774 0.3162 (  1302 PWs)   bands (ev):

   -47.1583 -47.1583 -16.1594 -16.1594 -15.9550 -15.9550 -15.6356 -15.6356
    12.9252  12.9252  13.2165  13.2165  14.4632  14.4632  17.1964  17.1964

     Writing output data file pwscf.save

     init_run     :      0.72s CPU      0.77s WALL (       1 calls)
     electrons    :     32.17s CPU     15.10s WALL (       1 calls)

     Called by init_run:
     wfcinit      :      0.00s CPU      0.00s WALL (       1 calls)
     wfcinit:atom :      0.09s CPU      0.06s WALL (      50 calls)
     wfcinit:wfcr :      3.44s CPU      1.56s WALL (      50 calls)
     potinit      :      0.02s CPU      0.03s WALL (       1 calls)

     Called by electrons:
     c_bands      :     32.17s CPU     15.10s WALL (       1 calls)
     v_of_rho     :      0.02s CPU      0.02s WALL (       1 calls)
     v_h          :      0.00s CPU      0.00s WALL (       1 calls)
     v_xc         :      0.02s CPU      0.02s WALL (       1 calls)
     newd         :      0.05s CPU      0.18s WALL (       1 calls)

     Called by c_bands:
     init_us_2    :      0.27s CPU      0.11s WALL (      50 calls)
     cegterg      :     26.78s CPU     12.50s WALL (      61 calls)

     Called by sum_band:

     Called by *egterg:
     h_psi        :     21.36s CPU      9.92s WALL (     897 calls)
     s_psi        :      0.45s CPU      0.29s WALL (     897 calls)
     g_psi        :      0.25s CPU      0.12s WALL (     786 calls)
     cdiaghg      :      4.69s CPU      2.30s WALL (     836 calls)
     cegterg:over :      1.22s CPU      0.51s WALL (     786 calls)
     cegterg:upda :      1.38s CPU      0.47s WALL (     786 calls)
     cegterg:last :      0.34s CPU      0.15s WALL (     161 calls)

     Called by h_psi:
     h_psi:pot    :     20.98s CPU      9.82s WALL (     897 calls)
     h_psi:calbec :      1.27s CPU      0.34s WALL (     897 calls)
     vloc_psi     :     18.42s CPU      9.05s WALL (     897 calls)
     add_vuspsi   :      1.22s CPU      0.40s WALL (     897 calls)

     General routines
     calbec       :      1.27s CPU      0.33s WALL (     897 calls)
     fft          :      0.00s CPU      0.01s WALL (      13 calls)
     ffts         :      0.00s CPU      0.00s WALL (       1 calls)
     fftw         :     15.59s CPU      7.70s WALL (   17448 calls)
     interpolate  :      0.00s CPU      0.00s WALL (       1 calls)
     davcio       :      0.00s CPU      0.01s WALL (      50 calls)

     Parallel routines
     fft_scatter  :      1.45s CPU      0.73s WALL (   17462 calls)

     PWSCF        :    33.28s CPU        16.33s WALL


   This run was terminated on:  19:26:13  26Feb2021            

=------------------------------------------------------------------------------=
   JOB DONE.
=------------------------------------------------------------------------------=
