element =  Mg
struct =  hcp
nbands =  -4
path =  GMKGA
kpts =  (8,8,4)
lattice constant a =  3.209
lattice constant b =  3.209
lattice constant c =  5.211
alpha angle =  90.0

  ___ ___ ___ _ _ _  
 |   |   |_  | | | | 
 | | | | | . | | | | 
 |__ |  _|___|_____|  1.3.1b1
 |___|_|             

User:   inukai@DESKTOP-12SE80T
Date:   Thu Feb 11 14:36:59 2021
Arch:   x86_64
Pid:    9761
Python: 3.6.9
gpaw:   /usr/lib/python3/dist-packages/gpaw
_gpaw:  /usr/lib/python3/dist-packages/_gpaw.cpython-36m-x86_64-linux-gnu.so
ase:    /home/inukai/hotcent/ase-3.19.3/ase (version 3.19.3)
numpy:  /home/inukai/.local/lib/python3.6/site-packages/numpy (version 1.19.5)
scipy:  /home/inukai/.local/lib/python3.6/site-packages/scipy (version 1.5.4)
units:  Angstrom and eV
cores:  1

Input parameters:
  kpts: [8 8 4]
  maxiter: 1500
  mixer: {backend: pulay,
          beta: 0.01,
          method: separate,
          nmaxold: 11,
          weight: 100.0}
  mode: {ecut: 400.0,
         name: pw}
  occupations: {name: fermi-dirac,
                width: 0.02}
  spinpol: True
  xc: PBE

System changes: positions, numbers, cell, pbc, initial_charges, initial_magmoms 

Initialize ...

Mg-setup:
  name: Magnesium
  id: b56b6cab5149d5bf22ad04c2f71a3023
  Z: 12
  valence: 10
  core: 2
  charge: 0.0
  file: /usr/share/gpaw-setups/Mg.PBE.gz
  cutoffs: 1.03(comp), 1.86(filt), 0.54(core), lmax=2
  valence states:
                energy  radius
    2s(2.00)   -79.840   1.090
    3s(2.00)    -4.705   1.090
    2p(6.00)   -46.613   1.085
    3p(0.00)    -1.330   1.085
    *d           0.000   1.037

  Using partial waves for Mg as LCAO basis

Reference energy: -10899.289777

Spin-polarized calculation.
Magnetic moment:  0.000000

Occupation numbers:
  Fermi-Dirac: width=0.0200 eV

Convergence criteria:
  Maximum total energy change: 0.0005 eV / electron
  Maximum integral of absolute density change: 0.0001 electrons
  Maximum integral of absolute eigenstate change: 4e-08 eV^2
  Maximum number of iterations: 1500

Symmetries present (total): 12

  ( 1  1  0)  ( 1  1  0)  ( 1  0  0)  ( 1  0  0)  ( 0  1  0)  ( 0  1  0)
  ( 0 -1  0)  ( 0 -1  0)  ( 0  1  0)  ( 0  1  0)  (-1 -1  0)  (-1 -1  0)
  ( 0  0  1)  ( 0  0 -1)  ( 0  0  1)  ( 0  0 -1)  ( 0  0  1)  ( 0  0 -1)

  ( 0 -1  0)  ( 0 -1  0)  (-1  0  0)  (-1  0  0)  (-1 -1  0)  (-1 -1  0)
  (-1  0  0)  (-1  0  0)  ( 1  1  0)  ( 1  1  0)  ( 1  0  0)  ( 1  0  0)
  ( 0  0  1)  ( 0  0 -1)  ( 0  0  1)  ( 0  0 -1)  ( 0  0  1)  ( 0  0 -1)
Note: your k-points are not as symmetric as your crystal!

256 k-points: 8 x 8 x 4 Monkhorst-Pack grid
40 k-points in the irreducible part of the Brillouin zone
       k-points in crystal coordinates                weights
   0:     0.06250000   -0.06250000    0.12500000          4/256
   1:     0.06250000   -0.06250000    0.37500000          4/256
   2:     0.06250000    0.06250000    0.12500000          4/256
   3:     0.06250000    0.06250000    0.37500000          4/256
   4:     0.18750000   -0.18750000    0.12500000          4/256
   5:     0.18750000   -0.18750000    0.37500000          4/256
   6:     0.18750000   -0.06250000    0.12500000          8/256
   7:     0.18750000   -0.06250000    0.37500000          8/256
   8:     0.18750000    0.06250000    0.12500000          8/256
   9:     0.18750000    0.06250000    0.37500000          8/256
          ...
  39:     0.43750000    0.43750000    0.37500000          4/256

Wave functions: Plane wave expansion
  Cutoff energy: 400.000 eV
  Number of coefficients (min, max): 832, 855
  Using FFTW library
  Eigensolver: None  MatrixOperator buffer_size: default value or 
                              see value of nblock in input file
Diagonalizer layout: Serial LAPACKOrthonormalizer layout: Serial LAPACK 

Davidson(niter=1, smin=None, normalize=True) 

Densities:
  Coarse grid: 14*14*24 grid
  Fine grid: 28*28*48 grid
  Total Charge: 0.000000 

Density mixing:
  Method: separate
  Backend: pulay
  Linear mixing parameter: 0.01
  Mixing with 11 old densities
  Damping of long wave oscillations: 100 

Hamiltonian:
  XC and Coulomb potentials evaluated on a 28*28*48 grid
  Using the PBE Exchange-Correlation functional
 

Memory estimate:
  Process memory now: 928.45 MiB
  Calculator: 26.44 MiB
    Density: 3.59 MiB
      Arrays: 1.26 MiB
      Localized functions: 0.75 MiB
      Mixer: 1.58 MiB
    Hamiltonian: 0.95 MiB
      Arrays: 0.93 MiB
      XC: 0.00 MiB
      Poisson: 0.00 MiB
      vbar: 0.02 MiB
    Wavefunctions: 21.90 MiB
      Arrays psit_nG: 16.70 MiB
      Eigensolver: 0.31 MiB
      Projections: 0.51 MiB
      Projectors: 3.61 MiB
      Overlap op: 0.21 MiB
      PW-descriptor: 0.57 MiB

Total number of cores used: 1

Number of atoms: 2
Number of atomic orbitals: 16
Number of bands in calculation: 16
Bands to converge: occupied states only
Number of valence electrons: 20

... initialized

Initializing position-dependent things.

Density initialized from atomic densities
Creating initial wave functions:
  16 bands from LCAO basis set

                  
                  
                  
                  
         Mg       
                  
                  
                  
       Mg         
                  
                  
                  
                  

Positions:
   0 Mg     0.000000    0.000000    0.000000
   1 Mg    -0.000000    1.852717    2.605500

Unit cell:
           periodic     x           y           z      points  spacing
  1. axis:    yes    3.209000    0.000000    0.000000    14     0.1985
  2. axis:    yes   -1.604500    2.779076    0.000000    14     0.1985
  3. axis:    yes    0.000000    0.000000    5.211000    24     0.2171

  Lengths:   3.209000   3.209000   5.211000
  Angles:   90.000000  90.000000 120.000000

Effective grid spacing dv^(1/3) = 0.2146

                     log10-error:    total        iterations:
           time      wfs    density  energy       fermi  poisson  magmom
iter:   1  14:37:06  +1.50   +inf    -3.048872    4               +0.0000
iter:   2  14:37:08  -0.16   +inf    -3.080603    4               +0.0000
iter:   3  14:37:11  -0.18   +inf    -3.091146    3               +0.0000
iter:   4  14:37:14  -0.78  -1.55    -3.095684    3               +0.0000
iter:   5  14:37:17  -0.66  -1.55    -3.100930    3               +0.0000
iter:   6  14:37:20  -0.25  -1.51    -3.096651    7               -0.0000
iter:   7  14:37:23  -1.32  -3.00    -3.098009    3               -0.0000
iter:   8  14:37:27  -1.56  -3.08    -3.098448    2               -0.0000
iter:   9  14:37:30  -2.09  -2.92    -3.098061    3               -0.0000
iter:  10  14:37:33  -1.99  -2.97    -3.097038    3               -0.0000
iter:  11  14:37:36  -3.30  -3.73    -3.097044    2               -0.0000
iter:  12  14:37:39  -3.51  -3.80    -3.097046    2               -0.0000
iter:  13  14:37:43  -3.25  -3.80    -3.097007    3               +0.0000
iter:  14  14:37:46  -3.60  -3.73    -3.097011    2               +0.0000
iter:  15  14:37:49  -4.35  -4.11    -3.097021    2               +0.0000
iter:  16  14:37:52  -4.58  -4.01    -3.097015    2               -0.0000
iter:  17  14:37:55  -5.04  -4.08    -3.097012    2               -0.0000
iter:  18  14:37:58  -4.37  -4.28    -3.097008    2               -0.0000
iter:  19  14:38:02  -5.74  -4.78    -3.097008    2               -0.0000
iter:  20  14:38:05  -5.17  -4.68    -3.097008    2               -0.0000
iter:  21  14:38:08  -5.73  -4.94    -3.097008    2               -0.0000
iter:  22  14:38:11  -5.18  -4.89    -3.097008    2               -0.0000
iter:  23  14:38:14  -6.31  -5.11    -3.097008    2               -0.0000
iter:  24  14:38:17  -6.71  -5.29    -3.097008    2               -0.0000
iter:  25  14:38:21  -7.66  -5.58    -3.097008    1               -0.0000

Converged after 25 iterations.

Dipole moment: (-1.591547, 0.918880, 0.000000) |e|*Ang

Total magnetic moment: -0.000000
Local magnetic moments:
   0 Mg 0.000000
   1 Mg 0.000000

Energy contributions relative to reference atoms: (reference = -10899.289777)

Kinetic:         -2.221794
Potential:       +4.663364
External:        +0.000000
XC:              -5.485147
Entropy (-ST):   -0.002039
Local:           -0.052411
--------------------------
Free energy:     -3.098027
Extrapolated:    -3.097008

Spin contamination: 0.000000 electrons
Fermi level: 3.49087

Warning: Showing only first 2 kpts
                      Up                     Down
 Kpt  Band  Eigenvalues  Occupancy  Eigenvalues  Occupancy
  0     8     -3.23022    0.01562     -3.23022    0.01562
  0     9      0.84144    0.01562      0.84144    0.01562
  0    10      3.51630    0.00342      3.51630    0.00342
  0    11     12.77796    0.00000     12.77796    0.00000

  1     8     -2.53820    0.01562     -2.53820    0.01562
  1     9     -1.16980    0.01562     -1.16980    0.01562
  1    10      6.72918    0.00000      6.72918    0.00000
  1    11     10.46506    0.00000     10.46506    0.00000


Input parameters:
  convergence: {bands: all}
  eigensolver: {name: cg,
                niter: 5}
  fixdensity: True
  kpts: {npoints: 50,
         path: GMKGA}
  nbands: -4
  symmetry: off

Initialize ...

Mg-setup:
  name: Magnesium
  id: b56b6cab5149d5bf22ad04c2f71a3023
  Z: 12
  valence: 10
  core: 2
  charge: 0.0
  file: /usr/share/gpaw-setups/Mg.PBE.gz
  cutoffs: 1.03(comp), 1.86(filt), 0.54(core), lmax=2
  valence states:
                energy  radius
    2s(2.00)   -79.840   1.090
    3s(2.00)    -4.705   1.090
    2p(6.00)   -46.613   1.085
    3p(0.00)    -1.330   1.085
    *d           0.000   1.037

  Using partial waves for Mg as LCAO basis

Reference energy: -10899.289777

Spin-polarized calculation.
Magnetic moment:  0.000000

Occupation numbers:
  Fixed Fermi level
  Fermi-Dirac: width=0.0200 eV

Convergence criteria:
  Maximum total energy change: 0.0005 eV / electron
  Maximum integral of absolute density change: 0.0001 electrons
  Maximum integral of absolute eigenstate change: 4e-08 eV^2
  Maximum number of iterations: 1500

Symmetries present (total): 1

  ( 1  0  0)
  ( 0  1  0)
  ( 0  0  1)

50 k-points
50 k-points in the irreducible part of the Brillouin zone
       k-points in crystal coordinates                weights
   0:     0.00000000    0.00000000    0.00000000          1/50
   1:     0.03571429    0.00000000    0.00000000          1/50
   2:     0.07142857    0.00000000    0.00000000          1/50
   3:     0.10714286    0.00000000    0.00000000          1/50
   4:     0.14285714    0.00000000    0.00000000          1/50
   5:     0.17857143    0.00000000    0.00000000          1/50
   6:     0.21428571    0.00000000    0.00000000          1/50
   7:     0.25000000    0.00000000    0.00000000          1/50
   8:     0.28571429    0.00000000    0.00000000          1/50
   9:     0.32142857    0.00000000    0.00000000          1/50
          ...
  49:     0.00000000    0.00000000    0.50000000          1/50

Wave functions: Plane wave expansion
  Cutoff energy: 400.000 eV
  Number of coefficients (min, max): 820, 860
  Using FFTW library
  Eigensolver: None  MatrixOperator buffer_size: default value or 
                              see value of nblock in input file
Diagonalizer layout: Serial LAPACKOrthonormalizer layout: Serial LAPACK 

CG(niter=5, rtol=3.0e-01) 

No density mixing

Memory estimate:
  Process memory now: 1018.92 MiB
  Calculator: 29.06 MiB
    Density: 3.59 MiB
      Arrays: 1.26 MiB
      Localized functions: 0.75 MiB
      Mixer: 1.58 MiB
    Hamiltonian: 0.95 MiB
      Arrays: 0.93 MiB
      XC: 0.00 MiB
      Poisson: 0.00 MiB
      vbar: 0.02 MiB
    Wavefunctions: 24.52 MiB
      Arrays psit_nG: 18.37 MiB
      Eigensolver: 0.25 MiB
      Projections: 0.56 MiB
      Projectors: 4.50 MiB
      Overlap op: 0.19 MiB
      PW-descriptor: 0.66 MiB

Total number of cores used: 1

Number of atoms: 2
Number of atomic orbitals: 16
Number of bands in calculation: 14
Bands to converge: all
Number of valence electrons: 20

... initialized

Initializing position-dependent things.

Creating initial wave functions:
  14 bands from LCAO basis set

                  
                  
                  
                  
         Mg       
                  
                  
                  
       Mg         
                  
                  
                  
                  

Positions:
   0 Mg     0.000000    0.000000    0.000000
   1 Mg    -0.000000    1.852717    2.605500

Unit cell:
           periodic     x           y           z      points  spacing
  1. axis:    yes    3.209000    0.000000    0.000000    14     0.1985
  2. axis:    yes   -1.604500    2.779076    0.000000    14     0.1985
  3. axis:    yes    0.000000    0.000000    5.211000    24     0.2171

  Lengths:   3.209000   3.209000   5.211000
  Angles:   90.000000  90.000000 120.000000

Effective grid spacing dv^(1/3) = 0.2146

                     log10-error:    total        iterations:
           time      wfs    density  energy       fermi  poisson  magmom
iter:   1  14:38:39  +1.64           -5.095163    31              -0.0000
iter:   2  14:38:55  +0.90           -5.110902    31              -0.0000
iter:   3  14:39:11  +0.13           -5.112006    30              -0.0000
iter:   4  14:39:29  -0.16           -5.112088    31              -0.0000
iter:   5  14:39:45  -0.73           -5.112094    31              -0.0000
iter:   6  14:40:02  -1.50           -5.112095    31              -0.0000
iter:   7  14:40:17  -1.98           -5.112095    31              -0.0000
iter:   8  14:40:29  -2.30           -5.112095    31              -0.0000
iter:   9  14:40:37  -0.81           -5.112095    31              -0.0000
iter:  10  14:40:43  -0.62           -5.112095    31              -0.0000
iter:  11  14:40:47  -1.19           -5.112095    31              -0.0000
iter:  12  14:40:50  -2.43           -5.112095    31              -0.0000
iter:  13  14:40:53  -2.23           -5.112095    31              -0.0000
iter:  14  14:40:56  -2.74           -5.112095    31              -0.0000
iter:  15  14:40:59  -1.37           -5.112095    31              -0.0000
iter:  16  14:41:01  -1.04           -5.112095    31              -0.0000
iter:  17  14:41:03  -0.98           -5.112095    31              -0.0000
iter:  18  14:41:06  -1.52           -5.112095    31              -0.0000
iter:  19  14:41:08  -2.29           -5.112095    31              -0.0000
iter:  20  14:41:10  -3.26           -5.112095    31              -0.0000
iter:  21  14:41:12  -3.45           -5.112095    31              -0.0000
iter:  22  14:41:15  -3.69           -5.112095    31              -0.0000
iter:  23  14:41:17  -4.70           -5.112095    31              -0.0000
iter:  24  14:41:19  -4.81           -5.112095    31              -0.0000
iter:  25  14:41:21  -5.21           -5.112095    31              -0.0000
iter:  26  14:41:23  -5.36           -5.112095    31              -0.0000
iter:  27  14:41:25  -5.34           -5.112095    31              -0.0000
iter:  28  14:41:27  -5.25           -5.112095    31              -0.0000
iter:  29  14:41:29  -5.39           -5.112095    31              -0.0000
iter:  30  14:41:31  -5.29           -5.112095    31              -0.0000
iter:  31  14:41:33  -5.14           -5.112095    31              -0.0000
iter:  32  14:41:35  -5.13           -5.112095    31              -0.0000
iter:  33  14:41:37  -5.00           -5.112095    31              -0.0000
iter:  34  14:41:39  -4.90           -5.112095    31              -0.0000
iter:  35  14:41:41  -4.73           -5.112095    31              -0.0000
iter:  36  14:41:43  -4.47           -5.112095    31              -0.0000
iter:  37  14:41:45  -4.15           -5.112095    31              -0.0000
iter:  38  14:41:47  -3.24           -5.112095    31              -0.0000
iter:  39  14:41:49  -2.89           -5.112095    31              -0.0000
iter:  40  14:41:51  -2.31           -5.112095    31              -0.0000
iter:  41  14:41:53  -2.72           -5.112095    31              -0.0000
iter:  42  14:41:55  -2.85           -5.112095    31              -0.0000
iter:  43  14:41:57  -3.44           -5.112095    31              -0.0000
iter:  44  14:41:59  -3.57           -5.112095    31              -0.0000
iter:  45  14:42:01  -3.73           -5.112095    31              -0.0000
iter:  46  14:42:03  -3.79           -5.112095    31              -0.0000
iter:  47  14:42:05  -3.73           -5.112095    31              -0.0000
iter:  48  14:42:07  -3.80           -5.112095    31              -0.0000
iter:  49  14:42:09  -3.74           -5.112095    31              -0.0000
iter:  50  14:42:11  -3.85           -5.112095    31              -0.0000
iter:  51  14:42:13  -3.82           -5.112095    31              -0.0000
iter:  52  14:42:14  -3.58           -5.112095    31              -0.0000
iter:  53  14:42:16  -3.36           -5.112095    31              -0.0000
iter:  54  14:42:18  -2.87           -5.112095    31              -0.0000
iter:  55  14:42:20  -4.03           -5.112095    31              -0.0000
iter:  56  14:42:22  -3.85           -5.112095    31              -0.0000
iter:  57  14:42:23  -4.43           -5.112095    31              -0.0000
iter:  58  14:42:25  -4.15           -5.112095    31              -0.0000
iter:  59  14:42:27  -4.52           -5.112095    31              -0.0000
iter:  60  14:42:29  -4.29           -5.112095    31              -0.0000
iter:  61  14:42:30  -4.52           -5.112095    31              -0.0000
iter:  62  14:42:32  -4.31           -5.112095    31              -0.0000
iter:  63  14:42:34  -4.48           -5.112095    31              -0.0000
iter:  64  14:42:36  -4.29           -5.112095    31              -0.0000
iter:  65  14:42:37  -4.43           -5.112095    31              -0.0000
iter:  66  14:42:39  -4.24           -5.112095    31              -0.0000
iter:  67  14:42:41  -4.38           -5.112095    31              -0.0000
iter:  68  14:42:43  -4.20           -5.112095    31              -0.0000
iter:  69  14:42:44  -4.33           -5.112095    31              -0.0000
iter:  70  14:42:46  -4.16           -5.112095    31              -0.0000
iter:  71  14:42:48  -4.28           -5.112095    31              -0.0000
iter:  72  14:42:50  -4.11           -5.112095    31              -0.0000
iter:  73  14:42:51  -4.27           -5.112095    31              -0.0000
iter:  74  14:42:53  -4.09           -5.112095    31              -0.0000
iter:  75  14:42:55  -4.24           -5.112095    31              -0.0000
iter:  76  14:42:57  -4.09           -5.112095    31              -0.0000
iter:  77  14:42:58  -4.23           -5.112095    31              -0.0000
iter:  78  14:43:00  -4.08           -5.112095    31              -0.0000
iter:  79  14:43:02  -4.21           -5.112095    31              -0.0000
iter:  80  14:43:04  -4.07           -5.112095    31              -0.0000
iter:  81  14:43:05  -4.19           -5.112095    31              -0.0000
iter:  82  14:43:07  -4.06           -5.112095    31              -0.0000
iter:  83  14:43:09  -4.18           -5.112095    31              -0.0000
iter:  84  14:43:11  -4.06           -5.112095    31              -0.0000
iter:  85  14:43:12  -4.20           -5.112095    31              -0.0000
iter:  86  14:43:14  -4.06           -5.112095    31              -0.0000
iter:  87  14:43:16  -4.20           -5.112095    31              -0.0000
iter:  88  14:43:18  -4.09           -5.112095    31              -0.0000
iter:  89  14:43:19  -4.07           -5.112095    31              -0.0000
iter:  90  14:43:21  -3.47           -5.112095    31              -0.0000
iter:  91  14:43:22  -3.90           -5.112095    31              -0.0000
iter:  92  14:43:24  -3.83           -5.112095    31              -0.0000
iter:  93  14:43:26  -3.67           -5.112095    31              -0.0000
iter:  94  14:43:27  -3.48           -5.112095    31              -0.0000
iter:  95  14:43:29  -4.01           -5.112095    31              -0.0000
iter:  96  14:43:31  -4.37           -5.112095    31              -0.0000
iter:  97  14:43:32  -4.23           -5.112095    31              -0.0000
iter:  98  14:43:34  -4.29           -5.112095    31              -0.0000
iter:  99  14:43:35  -3.80           -5.112095    31              -0.0000
iter: 100  14:43:37  -3.93           -5.112095    31              -0.0000
iter: 101  14:43:39  -4.16           -5.112095    31              -0.0000
iter: 102  14:43:40  -4.11           -5.112095    31              -0.0000
iter: 103  14:43:42  -4.07           -5.112095    31              -0.0000
iter: 104  14:43:43  -4.31           -5.112095    31              -0.0000
iter: 105  14:43:45  -4.09           -5.112095    31              -0.0000
iter: 106  14:43:47  -4.26           -5.112095    31              -0.0000
iter: 107  14:43:48  -4.04           -5.112095    31              -0.0000
iter: 108  14:43:50  -4.20           -5.112095    31              -0.0000
iter: 109  14:43:51  -4.00           -5.112095    31              -0.0000
iter: 110  14:43:53  -4.16           -5.112095    31              -0.0000
iter: 111  14:43:55  -3.96           -5.112095    31              -0.0000
iter: 112  14:43:56  -4.08           -5.112095    31              -0.0000
iter: 113  14:43:58  -3.91           -5.112095    31              -0.0000
iter: 114  14:43:59  -4.06           -5.112095    31              -0.0000
iter: 115  14:44:01  -3.96           -5.112095    31              -0.0000
iter: 116  14:44:03  -4.03           -5.112095    31              -0.0000
iter: 117  14:44:04  -3.87           -5.112095    31              -0.0000
iter: 118  14:44:06  -4.12           -5.112095    31              -0.0000
iter: 119  14:44:08  -3.83           -5.112095    31              -0.0000
iter: 120  14:44:09  -3.94           -5.112095    31              -0.0000
iter: 121  14:44:11  -3.95           -5.112095    31              -0.0000
iter: 122  14:44:12  -3.87           -5.112095    31              -0.0000
iter: 123  14:44:14  -3.76           -5.112095    31              -0.0000
iter: 124  14:44:16  -4.12           -5.112095    31              -0.0000
iter: 125  14:44:17  -3.80           -5.112095    31              -0.0000
iter: 126  14:44:19  -3.90           -5.112095    31              -0.0000
iter: 127  14:44:20  -4.08           -5.112095    31              -0.0000
iter: 128  14:44:22  -3.38           -5.112095    31              -0.0000
iter: 129  14:44:24  -3.41           -5.112095    31              -0.0000
iter: 130  14:44:25  -4.10           -5.112095    31              -0.0000
iter: 131  14:44:27  -4.13           -5.112095    31              -0.0000
iter: 132  14:44:28  -4.21           -5.112095    31              -0.0000
iter: 133  14:44:30  -4.08           -5.112095    31              -0.0000
iter: 134  14:44:32  -4.15           -5.112095    31              -0.0000
iter: 135  14:44:33  -4.19           -5.112095    31              -0.0000
iter: 136  14:44:35  -4.27           -5.112095    31              -0.0000
iter: 137  14:44:36  -4.14           -5.112095    31              -0.0000
iter: 138  14:44:38  -4.21           -5.112095    31              -0.0000
iter: 139  14:44:40  -4.26           -5.112095    31              -0.0000
iter: 140  14:44:41  -4.34           -5.112095    31              -0.0000
iter: 141  14:44:43  -4.21           -5.112095    31              -0.0000
iter: 142  14:44:44  -4.27           -5.112095    31              -0.0000
iter: 143  14:44:46  -4.33           -5.112095    31              -0.0000
iter: 144  14:44:48  -4.40           -5.112095    31              -0.0000
iter: 145  14:44:49  -4.28           -5.112095    31              -0.0000
iter: 146  14:44:51  -4.34           -5.112095    31              -0.0000
iter: 147  14:44:53  -4.40           -5.112095    31              -0.0000
iter: 148  14:44:54  -4.47           -5.112095    31              -0.0000
iter: 149  14:44:56  -4.35           -5.112095    31              -0.0000
iter: 150  14:44:57  -4.41           -5.112095    31              -0.0000
iter: 151  14:44:59  -4.47           -5.112095    31              -0.0000
iter: 152  14:45:01  -4.54           -5.112095    31              -0.0000
iter: 153  14:45:02  -4.42           -5.112095    31              -0.0000
iter: 154  14:45:04  -4.49           -5.112095    31              -0.0000
iter: 155  14:45:05  -4.55           -5.112095    31              -0.0000
iter: 156  14:45:07  -4.63           -5.112095    31              -0.0000
iter: 157  14:45:09  -4.52           -5.112095    31              -0.0000
iter: 158  14:45:10  -4.61           -5.112095    31              -0.0000
iter: 159  14:45:12  -4.66           -5.112095    31              -0.0000
iter: 160  14:45:13  -4.77           -5.112095    31              -0.0000
iter: 161  14:45:15  -4.71           -5.112095    31              -0.0000
iter: 162  14:45:17  -4.81           -5.112095    31              -0.0000
iter: 163  14:45:18  -4.76           -5.112095    31              -0.0000
iter: 164  14:45:20  -4.85           -5.112095    31              -0.0000
iter: 165  14:45:22  -4.81           -5.112095    31              -0.0000
iter: 166  14:45:23  -4.89           -5.112095    31              -0.0000
iter: 167  14:45:25  -4.85           -5.112095    31              -0.0000
iter: 168  14:45:26  -4.94           -5.112095    31              -0.0000
iter: 169  14:45:28  -4.90           -5.112095    31              -0.0000
iter: 170  14:45:30  -4.98           -5.112095    31              -0.0000
iter: 171  14:45:31  -4.94           -5.112095    31              -0.0000
iter: 172  14:45:33  -5.03           -5.112095    31              -0.0000
iter: 173  14:45:35  -4.99           -5.112095    31              -0.0000
iter: 174  14:45:36  -5.07           -5.112095    31              -0.0000
iter: 175  14:45:38  -5.04           -5.112095    31              -0.0000
iter: 176  14:45:39  -5.12           -5.112095    31              -0.0000
iter: 177  14:45:41  -5.09           -5.112095    31              -0.0000
iter: 178  14:45:43  -5.16           -5.112095    31              -0.0000
iter: 179  14:45:44  -5.16           -5.112095    31              -0.0000
iter: 180  14:45:46  -5.20           -5.112095    31              -0.0000
iter: 181  14:45:47  -5.22           -5.112095    31              -0.0000
iter: 182  14:45:49  -5.09           -5.112095    31              -0.0000
iter: 183  14:45:51  -5.30           -5.112095    31              -0.0000
iter: 184  14:45:52  -4.59           -5.112095    31              -0.0000
iter: 185  14:45:54  -5.26           -5.112095    31              -0.0000
iter: 186  14:45:55  -5.53           -5.112095    31              -0.0000
iter: 187  14:45:57  -5.48           -5.112095    31              -0.0000
iter: 188  14:45:59  -5.59           -5.112095    31              -0.0000
iter: 189  14:46:00  -5.52           -5.112095    31              -0.0000
iter: 190  14:46:02  -5.63           -5.112095    31              -0.0000
iter: 191  14:46:03  -5.57           -5.112095    31              -0.0000
iter: 192  14:46:05  -5.68           -5.112095    31              -0.0000
iter: 193  14:46:06  -5.62           -5.112095    31              -0.0000
iter: 194  14:46:08  -5.73           -5.112095    31              -0.0000
iter: 195  14:46:10  -5.67           -5.112095    31              -0.0000
iter: 196  14:46:11  -5.78           -5.112095    31              -0.0000
iter: 197  14:46:13  -5.72           -5.112095    31              -0.0000
iter: 198  14:46:14  -5.83           -5.112095    31              -0.0000
iter: 199  14:46:16  -5.77           -5.112095    31              -0.0000
iter: 200  14:46:17  -5.88           -5.112095    31              -0.0000
iter: 201  14:46:19  -5.82           -5.112095    31              -0.0000
iter: 202  14:46:20  -5.93           -5.112095    31              -0.0000
iter: 203  14:46:22  -5.87           -5.112095    31              -0.0000
iter: 204  14:46:24  -5.98           -5.112095    31              -0.0000
iter: 205  14:46:25  -5.92           -5.112095    31              -0.0000
iter: 206  14:46:27  -6.03           -5.112095    31              -0.0000
iter: 207  14:46:28  -5.97           -5.112095    31              -0.0000
iter: 208  14:46:30  -6.08           -5.112095    31              -0.0000
iter: 209  14:46:31  -6.02           -5.112095    31              -0.0000
iter: 210  14:46:33  -6.13           -5.112095    31              -0.0000
iter: 211  14:46:34  -6.07           -5.112095    31              -0.0000
iter: 212  14:46:36  -6.18           -5.112095    31              -0.0000
iter: 213  14:46:38  -6.12           -5.112095    31              -0.0000
iter: 214  14:46:39  -6.23           -5.112095    31              -0.0000
iter: 215  14:46:41  -6.17           -5.112095    31              -0.0000
iter: 216  14:46:42  -6.28           -5.112095    31              -0.0000
iter: 217  14:46:44  -6.22           -5.112095    31              -0.0000
iter: 218  14:46:45  -6.34           -5.112095    31              -0.0000
iter: 219  14:46:47  -6.28           -5.112095    31              -0.0000
iter: 220  14:46:48  -6.39           -5.112095    31              -0.0000
iter: 221  14:46:50  -6.33           -5.112095    31              -0.0000
iter: 222  14:46:51  -6.44           -5.112095    31              -0.0000
iter: 223  14:46:53  -6.38           -5.112095    31              -0.0000
iter: 224  14:46:55  -6.49           -5.112095    31              -0.0000
iter: 225  14:46:56  -6.43           -5.112095    31              -0.0000
iter: 226  14:46:58  -6.54           -5.112095    31              -0.0000
iter: 227  14:46:59  -6.48           -5.112095    31              -0.0000
iter: 228  14:47:01  -6.59           -5.112095    31              -0.0000
iter: 229  14:47:02  -6.53           -5.112095    31              -0.0000
iter: 230  14:47:04  -6.64           -5.112095    31              -0.0000
iter: 231  14:47:05  -6.58           -5.112095    31              -0.0000
iter: 232  14:47:07  -6.69           -5.112095    31              -0.0000
iter: 233  14:47:09  -6.63           -5.112095    31              -0.0000
iter: 234  14:47:10  -6.74           -5.112095    31              -0.0000
iter: 235  14:47:12  -6.68           -5.112095    31              -0.0000
iter: 236  14:47:13  -6.78           -5.112095    31              -0.0000
iter: 237  14:47:15  -6.72           -5.112095    31              -0.0000
iter: 238  14:47:16  -6.83           -5.112095    31              -0.0000
iter: 239  14:47:18  -6.77           -5.112095    31              -0.0000
iter: 240  14:47:19  -6.88           -5.112095    31              -0.0000
iter: 241  14:47:21  -6.82           -5.112095    31              -0.0000
iter: 242  14:47:22  -6.92           -5.112095    31              -0.0000
iter: 243  14:47:24  -6.86           -5.112095    31              -0.0000
iter: 244  14:47:26  -6.97           -5.112095    31              -0.0000
iter: 245  14:47:27  -6.91           -5.112095    31              -0.0000
iter: 246  14:47:29  -7.01           -5.112095    31              -0.0000
iter: 247  14:47:30  -6.95           -5.112095    31              -0.0000
iter: 248  14:47:32  -7.06           -5.112095    31              -0.0000
iter: 249  14:47:33  -6.99           -5.112095    31              -0.0000
iter: 250  14:47:35  -7.10           -5.112095    31              -0.0000
iter: 251  14:47:36  -7.04           -5.112095    31              -0.0000
iter: 252  14:47:38  -7.14           -5.112095    31              -0.0000
iter: 253  14:47:39  -7.08           -5.112095    31              -0.0000
iter: 254  14:47:41  -7.18           -5.112095    31              -0.0000
iter: 255  14:47:42  -7.11           -5.112095    31              -0.0000
iter: 256  14:47:44  -7.21           -5.112095    31              -0.0000
iter: 257  14:47:45  -7.15           -5.112095    31              -0.0000
iter: 258  14:47:47  -7.25           -5.112095    31              -0.0000
iter: 259  14:47:49  -7.18           -5.112095    31              -0.0000
iter: 260  14:47:50  -7.28           -5.112095    31              -0.0000
iter: 261  14:47:52  -7.21           -5.112095    31              -0.0000
iter: 262  14:47:53  -7.31           -5.112095    31              -0.0000
iter: 263  14:47:55  -7.24           -5.112095    31              -0.0000
iter: 264  14:47:56  -7.33           -5.112095    31              -0.0000
iter: 265  14:47:57  -7.27           -5.112095    31              -0.0000
iter: 266  14:47:59  -7.36           -5.112095    31              -0.0000
iter: 267  14:48:00  -7.29           -5.112095    31              -0.0000
iter: 268  14:48:02  -7.38           -5.112095    31              -0.0000
iter: 269  14:48:03  -7.31           -5.112095    31              -0.0000
iter: 270  14:48:05  -7.40           -5.112095    31              -0.0000
iter: 271  14:48:06  -7.33           -5.112095    31              -0.0000
iter: 272  14:48:08  -7.41           -5.112095    31              -0.0000

Converged after 272 iterations.

Dipole moment: (-1.591547, 0.918880, 0.000000) |e|*Ang

Total magnetic moment: -0.000000
Local magnetic moments:
   0 Mg 0.000000
   1 Mg 0.000000

Energy contributions relative to reference atoms: (reference = -10899.289777)

Kinetic:         -4.236953
Potential:       +4.663364
External:        +0.000000
XC:              -5.485147
Entropy (-ST):   -0.001894
Local:           -0.052411
--------------------------
Free energy:     -5.113042
Extrapolated:    -5.112095

Spin contamination: 0.000000 electrons
Fixed Fermi level: 3.49087

Warning: Showing only first 2 kpts
                      Up                     Down
 Kpt  Band  Eigenvalues  Occupancy  Eigenvalues  Occupancy
  0     8     -3.39351    0.02000     -3.39351    0.02000
  0     9      1.82402    0.02000      1.82402    0.02000
  0    10      2.23914    0.02000      2.23914    0.02000
  0    11     14.35648    0.00000     14.35648    0.00000

  1     8     -3.36856    0.02000     -3.36856    0.02000
  1     9      1.84674    0.02000      1.84674    0.02000
  1    10      2.26345    0.02000      2.26345    0.02000
  1    11     13.52259    0.00000     13.52259    0.00000


Timing:                              incl.     excl.
-----------------------------------------------------------
Hamiltonian:                         0.931     0.002   0.0% |
 Atomic:                             0.589     0.003   0.0% |
  XC Correction:                     0.587     0.587   0.1% |
 Calculate atomic Hamiltonians:      0.032     0.032   0.0% |
 Communicate:                        0.000     0.000   0.0% |
 Initialize Hamiltonian:             0.000     0.000   0.0% |
 Poisson:                            0.001     0.001   0.0% |
 XC 3D grid:                         0.307     0.307   0.0% |
LCAO initialization:                 4.886     0.097   0.0% |
 LCAO eigensolver:                   1.803     0.017   0.0% |
  Calculate projections:             0.008     0.008   0.0% |
  DenseAtomicCorrection:             0.044     0.044   0.0% |
  Distribute overlap matrix:         0.007     0.007   0.0% |
  Orbital Layouts:                   0.139     0.139   0.0% |
  Potential matrix:                  0.706     0.706   0.1% |
  Sum over cells:                    0.881     0.881   0.1% |
 LCAO to grid:                       2.175     2.175   0.3% |
 Set positions (LCAO WFS):           0.811     0.002   0.0% |
  Basic WFS set positions:           0.001     0.001   0.0% |
  Basis functions set positions:     0.000     0.000   0.0% |
  TCI: Calculate S, T, P:            0.808     0.808   0.1% |
PWDescriptor:                        0.047     0.047   0.0% |
Redistribute:                        0.000     0.000   0.0% |
SCF-cycle:                         661.346    95.572  14.3% |-----|
 CG:                               233.764   215.180  32.1% |------------|
  CG: orthonormalize:               18.583     9.907   1.5% ||
   CG: overlap:                      5.457     5.457   0.8% |
   CG: overlap2:                     3.220     3.220   0.5% |
 Davidson:                          43.180    21.680   3.2% ||
  calc. matrices:                   15.427    15.427   2.3% ||
  diagonalize:                       5.033     5.033   0.8% |
  rotate_psi:                        1.041     1.041   0.2% |
 Density:                            6.808     0.001   0.0% |
  Atomic density matrices:           0.076     0.076   0.0% |
  Mix:                               0.470     0.470   0.1% |
  Multipole moments:                 0.003     0.003   0.0% |
  Pseudo density:                    6.257     6.076   0.9% |
   Symmetrize density:               0.182     0.182   0.0% |
 Hamiltonian:                        9.943     0.020   0.0% |
  Atomic:                            6.806     0.029   0.0% |
   XC Correction:                    6.777     6.777   1.0% |
  Calculate atomic Hamiltonians:     0.312     0.312   0.0% |
  Communicate:                       0.000     0.000   0.0% |
  Poisson:                           0.010     0.010   0.0% |
  XC 3D grid:                        2.796     2.796   0.4% |
 Orthonormalize:                     0.480     0.016   0.0% |
  Band Layouts:                      0.016     0.004   0.0% |
   Inverse Cholesky:                 0.013     0.013   0.0% |
  calc_s_matrix:                     0.059     0.059   0.0% |
  projections:                       0.329     0.329   0.0% |
  rotate_psi:                        0.060     0.060   0.0% |
 Residuals:                         60.240    60.240   9.0% |---|
 Subspace diag:                    211.358     4.188   0.6% |
  Band Layouts:                     14.094     1.124   0.2% |
   Diagonalize:                     12.142    12.142   1.8% ||
   Distribute results:               0.829     0.829   0.1% |
  calc_h_matrix:                   174.330   174.330  26.0% |---------|
  rotate_psi:                       18.746    18.746   2.8% ||
Set symmetry:                        0.036     0.036   0.0% |
Other:                               2.971     2.971   0.4% |
-----------------------------------------------------------
Total:                                       670.217 100.0%

Date: Thu Feb 11 14:48:09 2021
element =  Mg
struct =  hcp
kpts =  (8,8,4)
element =  Mg
configuration =  [Ne] 3s2 3p0
valence =  ['3s', '3p']
occupations =  {'2s': 2, '3p': 0}
nls =  3s
rNum =  600
lmax =  p
*******************************************
Starting confinement parameter optimization
Adjustable parameters and initial values:
  Mg_3p.r0 : 5.329028
  Mg_3s.r0 : 5.329028
  Mg_n.r0 : 7.993542
*******************************************

OPT_VAL: 5.3290276748601375   5.3290276748601375   7.993541512290206
VCONF:
  Mg_3p : PowerConfinement(r0=5.329028, s=2.000000)
  Mg_3s : PowerConfinement(r0=5.329028, s=2.000000)
  Mg_n : PowerConfinement(r0=7.993542, s=2.000000)
RESIDUAL: 0.0

OPT_VAL: 5.529027674860138   5.3290276748601375   7.993541512290206
VCONF:
  Mg_3p : PowerConfinement(r0=5.529028, s=2.000000)
  Mg_3s : PowerConfinement(r0=5.329028, s=2.000000)
  Mg_n : PowerConfinement(r0=7.993542, s=2.000000)
RESIDUAL: 0.0

OPT_VAL: 5.3290276748601375   5.529027674860138   7.993541512290206
VCONF:
  Mg_3p : PowerConfinement(r0=5.329028, s=2.000000)
  Mg_3s : PowerConfinement(r0=5.529028, s=2.000000)
  Mg_n : PowerConfinement(r0=7.993542, s=2.000000)
RESIDUAL: 0.0

OPT_VAL: 5.3290276748601375   5.3290276748601375   8.193541512290206
VCONF:
  Mg_3p : PowerConfinement(r0=5.329028, s=2.000000)
  Mg_3s : PowerConfinement(r0=5.329028, s=2.000000)
  Mg_n : PowerConfinement(r0=8.193542, s=2.000000)
RESIDUAL: 0.0

OPT_VAL: 5.354027674860138   5.3290276748601375   7.993541512290206
VCONF:
  Mg_3p : PowerConfinement(r0=5.354028, s=2.000000)
  Mg_3s : PowerConfinement(r0=5.329028, s=2.000000)
  Mg_n : PowerConfinement(r0=7.993542, s=2.000000)
RESIDUAL: 0.0

OPT_VAL: 5.3290276748601375   5.354027674860138   7.993541512290206
VCONF:
  Mg_3p : PowerConfinement(r0=5.329028, s=2.000000)
  Mg_3s : PowerConfinement(r0=5.354028, s=2.000000)
  Mg_n : PowerConfinement(r0=7.993542, s=2.000000)
RESIDUAL: 0.0

OPT_VAL: 5.3290276748601375   5.3290276748601375   8.018541512290206
VCONF:
  Mg_3p : PowerConfinement(r0=5.329028, s=2.000000)
  Mg_3s : PowerConfinement(r0=5.329028, s=2.000000)
  Mg_n : PowerConfinement(r0=8.018542, s=2.000000)
RESIDUAL: 0.0

OPT_VAL: 5.334027674860137   5.3290276748601375   7.993541512290206
VCONF:
  Mg_3p : PowerConfinement(r0=5.334028, s=2.000000)
  Mg_3s : PowerConfinement(r0=5.329028, s=2.000000)
  Mg_n : PowerConfinement(r0=7.993542, s=2.000000)
RESIDUAL: 0.0

OPT_VAL: 5.3290276748601375   5.334027674860137   7.993541512290206
VCONF:
  Mg_3p : PowerConfinement(r0=5.329028, s=2.000000)
  Mg_3s : PowerConfinement(r0=5.334028, s=2.000000)
  Mg_n : PowerConfinement(r0=7.993542, s=2.000000)
RESIDUAL: 0.0

OPT_VAL: 5.3290276748601375   5.3290276748601375   7.998541512290206
VCONF:
  Mg_3p : PowerConfinement(r0=5.329028, s=2.000000)
  Mg_3s : PowerConfinement(r0=5.329028, s=2.000000)
  Mg_n : PowerConfinement(r0=7.998542, s=2.000000)
RESIDUAL: 0.0

*******************************************
Optimization finished after 10 iterations
Adjustable parameters and final values:
  Mg_3p.r0 : 5.329028
  Mg_3s.r0 : 5.329028
  Mg_n.r0 : 7.993542
*******************************************

VCONF:
  Mg_3p : PowerConfinement(r0=5.329028, s=2.000000)
  Mg_3s : PowerConfinement(r0=5.329028, s=2.000000)
  Mg_n : PowerConfinement(r0=7.993542, s=2.000000)
