
     Program PWSCF v.6.0 (svn rev. 13079) starts on 25Feb2021 at 14: 3:55 

     This program is part of the open-source Quantum ESPRESSO suite
     for quantum simulation of materials; please cite
         "P. Giannozzi et al., J. Phys.:Condens. Matter 21 395502 (2009);
          URL http://www.quantum-espresso.org", 
     in publications or presentations arising from this work. More details at
     http://www.quantum-espresso.org/quote

     Parallel version (MPI), running on     1 processors
     Reading input from espresso.pwi
Warning: card &IONS ignored
Warning: card / ignored
Warning: card &CELL ignored
Warning: card / ignored

     Current dimensions of program PWSCF are:
     Max number of different atomic species (ntypx) = 10
     Max number of k-points (npk) =  40000
     Max angular momentum in pseudopotentials (lmaxx) =  3
     Message from routine input:
     WARNING: "startingwfc" set to atomic+random may spoil restart

     Atomic positions and unit cell read from directory:
     ./pwscf.save/


     IMPORTANT: XC functional enforced from input :
     Exchange-correlation      = PBE ( 1  4  3  4 0 0)
     Any further DFT definition will be discarded
     Please, verify this is what you really want


     Subspace diagonalization in iterative solution of the eigenvalue problem:
     a serial algorithm will be used


     G-vector sticks info
     --------------------
     sticks:   dense  smooth     PW     G-vecs:    dense   smooth      PW
     Sum         313     253     85                 7187     5191     965



     bravais-lattice index     =            0
     lattice parameter (alat)  =       4.7375  a.u.
     unit-cell volume          =     149.4595 (a.u.)^3
     number of atoms/cell      =            2
     number of atomic types    =            1
     number of electrons       =        34.00
     number of Kohn-Sham states=           21
     kinetic-energy cutoff     =      40.0000  Ry
     charge density cutoff     =     200.0000  Ry
     Exchange-correlation      = PBE ( 1  4  3  4 0 0)

     celldm(1)=   4.737543  celldm(2)=   0.000000  celldm(3)=   0.000000
     celldm(4)=   0.000000  celldm(5)=   0.000000  celldm(6)=   0.000000

     crystal axes: (cart. coord. in units of alat)
               a(1) = (   1.000000   0.000000   0.000000 )  
               a(2) = (  -0.500000   0.866025   0.000000 )  
               a(3) = (   0.000000   0.000000   1.623055 )  

     reciprocal axes: (cart. coord. in units 2 pi/alat)
               b(1) = (  1.000000  0.577350 -0.000000 )  
               b(2) = (  0.000000  1.154701  0.000000 )  
               b(3) = (  0.000000 -0.000000  0.616122 )  


     PseudoPot. # 1 for Co read from file:
     /home/inukai/tango/tests/1element/qe_fit_v2_Co/../pseudo/co_pbe_v1.2.uspp.F.UPF
     MD5 check sum: 5f91765df6ddd3222702df6e7b74a16d
     Pseudo is Ultrasoft + core correction, Zval = 17.0
     Generated by new atomic code, or converted to UPF format
     Using radial grid of  863 points,  6 beta functions with: 
                l(1) =   0
                l(2) =   0
                l(3) =   1
                l(4) =   1
                l(5) =   2
                l(6) =   2
     Q(r) pseudized with  8 coefficients,  rinner =    1.200   1.200   1.200
                                                       1.200   1.200

     atomic species   valence    mass     pseudopotential
        Co            17.00    58.93319     Co( 1.00)

     24 Sym. Ops., with inversion, found (12 have fractional translation)


                                    s                        frac. trans.

      isym =  1     identity                                     

 cryst.   s( 1) = (     1          0          0      )
                  (     0          1          0      )
                  (     0          0          1      )

 cart.    s( 1) = (  1.0000000  0.0000000  0.0000000 )
                  (  0.0000000  1.0000000  0.0000000 )
                  (  0.0000000  0.0000000  1.0000000 )


      isym =  2     180 deg rotation - cart. axis [0,0,1]        

 cryst.   s( 2) = (    -1          0          0      )    f =( -0.3333333 )
                  (     0         -1          0      )       (  0.3333333 )
                  (     0          0          1      )       (  0.5000000 )

 cart.    s( 2) = ( -1.0000000  0.0000000  0.0000000 )    f =( -0.5000000 )
                  (  0.0000000 -1.0000000  0.0000000 )       (  0.2886751 )
                  (  0.0000000  0.0000000  1.0000000 )       (  0.8115277 )


      isym =  3     180 deg rotation - cart. axis [0,1,0]        

 cryst.   s( 3) = (    -1          0          0      )
                  (     1          1          0      )
                  (     0          0         -1      )

 cart.    s( 3) = ( -1.0000000  0.0000000  0.0000000 )
                  (  0.0000000  1.0000000  0.0000000 )
                  (  0.0000000  0.0000000 -1.0000000 )


      isym =  4     180 deg rotation - cart. axis [1,0,0]        

 cryst.   s( 4) = (     1          0          0      )    f =( -0.3333333 )
                  (    -1         -1          0      )       (  0.3333333 )
                  (     0          0         -1      )       ( -0.5000000 )

 cart.    s( 4) = (  1.0000000  0.0000000  0.0000000 )    f =( -0.5000000 )
                  (  0.0000000 -1.0000000  0.0000000 )       (  0.2886751 )
                  (  0.0000000  0.0000000 -1.0000000 )       ( -0.8115277 )


      isym =  5      60 deg rotation - cryst. axis [0,0,1]       

 cryst.   s( 5) = (     1          1          0      )    f =( -0.3333333 )
                  (    -1          0          0      )       (  0.3333333 )
                  (     0          0          1      )       (  0.5000000 )

 cart.    s( 5) = (  0.5000000 -0.8660254  0.0000000 )    f =( -0.5000000 )
                  (  0.8660254  0.5000000  0.0000000 )       (  0.2886751 )
                  (  0.0000000  0.0000000  1.0000000 )       (  0.8115277 )


      isym =  6      60 deg rotation - cryst. axis [0,0,-1]      

 cryst.   s( 6) = (     0         -1          0      )    f =( -0.3333333 )
                  (     1          1          0      )       (  0.3333333 )
                  (     0          0          1      )       (  0.5000000 )

 cart.    s( 6) = (  0.5000000  0.8660254  0.0000000 )    f =( -0.5000000 )
                  ( -0.8660254  0.5000000  0.0000000 )       (  0.2886751 )
                  (  0.0000000  0.0000000  1.0000000 )       (  0.8115277 )


      isym =  7     120 deg rotation - cryst. axis [0,0,1]       

 cryst.   s( 7) = (     0          1          0      )
                  (    -1         -1          0      )
                  (     0          0          1      )

 cart.    s( 7) = ( -0.5000000 -0.8660254  0.0000000 )
                  (  0.8660254 -0.5000000  0.0000000 )
                  (  0.0000000  0.0000000  1.0000000 )


      isym =  8     120 deg rotation - cryst. axis [0,0,-1]      

 cryst.   s( 8) = (    -1         -1          0      )
                  (     1          0          0      )
                  (     0          0          1      )

 cart.    s( 8) = ( -0.5000000  0.8660254  0.0000000 )
                  ( -0.8660254 -0.5000000  0.0000000 )
                  (  0.0000000  0.0000000  1.0000000 )


      isym =  9     180 deg rotation - cryst. axis [1,-1,0]      

 cryst.   s( 9) = (     0         -1          0      )
                  (    -1          0          0      )
                  (     0          0         -1      )

 cart.    s( 9) = (  0.5000000 -0.8660254  0.0000000 )
                  ( -0.8660254 -0.5000000  0.0000000 )
                  (  0.0000000  0.0000000 -1.0000000 )


      isym = 10     180 deg rotation - cryst. axis [2,1,0]       

 cryst.   s(10) = (     1          1          0      )
                  (     0         -1          0      )
                  (     0          0         -1      )

 cart.    s(10) = (  0.5000000  0.8660254  0.0000000 )
                  (  0.8660254 -0.5000000  0.0000000 )
                  (  0.0000000  0.0000000 -1.0000000 )


      isym = 11     180 deg rotation - cryst. axis [0,1,0]       

 cryst.   s(11) = (    -1         -1          0      )    f =( -0.3333333 )
                  (     0          1          0      )       (  0.3333333 )
                  (     0          0         -1      )       ( -0.5000000 )

 cart.    s(11) = ( -0.5000000 -0.8660254  0.0000000 )    f =( -0.5000000 )
                  ( -0.8660254  0.5000000  0.0000000 )       (  0.2886751 )
                  (  0.0000000  0.0000000 -1.0000000 )       ( -0.8115277 )


      isym = 12     180 deg rotation - cryst. axis [1,1,0]       

 cryst.   s(12) = (     0          1          0      )    f =( -0.3333333 )
                  (     1          0          0      )       (  0.3333333 )
                  (     0          0         -1      )       ( -0.5000000 )

 cart.    s(12) = ( -0.5000000  0.8660254  0.0000000 )    f =( -0.5000000 )
                  (  0.8660254  0.5000000  0.0000000 )       (  0.2886751 )
                  (  0.0000000  0.0000000 -1.0000000 )       ( -0.8115277 )


      isym = 13     inversion                                    

 cryst.   s(13) = (    -1          0          0      )    f =( -0.3333333 )
                  (     0         -1          0      )       (  0.3333333 )
                  (     0          0         -1      )       ( -0.5000000 )

 cart.    s(13) = ( -1.0000000  0.0000000  0.0000000 )    f =( -0.5000000 )
                  (  0.0000000 -1.0000000  0.0000000 )       (  0.2886751 )
                  (  0.0000000  0.0000000 -1.0000000 )       ( -0.8115277 )


      isym = 14     inv. 180 deg rotation - cart. axis [0,0,1]   

 cryst.   s(14) = (     1          0          0      )
                  (     0          1          0      )
                  (     0          0         -1      )

 cart.    s(14) = (  1.0000000  0.0000000  0.0000000 )
                  (  0.0000000  1.0000000  0.0000000 )
                  (  0.0000000  0.0000000 -1.0000000 )


      isym = 15     inv. 180 deg rotation - cart. axis [0,1,0]   

 cryst.   s(15) = (     1          0          0      )    f =( -0.3333333 )
                  (    -1         -1          0      )       (  0.3333333 )
                  (     0          0          1      )       (  0.5000000 )

 cart.    s(15) = (  1.0000000  0.0000000  0.0000000 )    f =( -0.5000000 )
                  (  0.0000000 -1.0000000  0.0000000 )       (  0.2886751 )
                  (  0.0000000  0.0000000  1.0000000 )       (  0.8115277 )


      isym = 16     inv. 180 deg rotation - cart. axis [1,0,0]   

 cryst.   s(16) = (    -1          0          0      )
                  (     1          1          0      )
                  (     0          0          1      )

 cart.    s(16) = ( -1.0000000  0.0000000  0.0000000 )
                  (  0.0000000  1.0000000  0.0000000 )
                  (  0.0000000  0.0000000  1.0000000 )


      isym = 17     inv.  60 deg rotation - cryst. axis [0,0,1]  

 cryst.   s(17) = (    -1         -1          0      )
                  (     1          0          0      )
                  (     0          0         -1      )

 cart.    s(17) = ( -0.5000000  0.8660254  0.0000000 )
                  ( -0.8660254 -0.5000000  0.0000000 )
                  (  0.0000000  0.0000000 -1.0000000 )


      isym = 18     inv.  60 deg rotation - cryst. axis [0,0,-1] 

 cryst.   s(18) = (     0          1          0      )
                  (    -1         -1          0      )
                  (     0          0         -1      )

 cart.    s(18) = ( -0.5000000 -0.8660254  0.0000000 )
                  (  0.8660254 -0.5000000  0.0000000 )
                  (  0.0000000  0.0000000 -1.0000000 )


      isym = 19     inv. 120 deg rotation - cryst. axis [0,0,1]  

 cryst.   s(19) = (     0         -1          0      )    f =( -0.3333333 )
                  (     1          1          0      )       (  0.3333333 )
                  (     0          0         -1      )       ( -0.5000000 )

 cart.    s(19) = (  0.5000000  0.8660254  0.0000000 )    f =( -0.5000000 )
                  ( -0.8660254  0.5000000  0.0000000 )       (  0.2886751 )
                  (  0.0000000  0.0000000 -1.0000000 )       ( -0.8115277 )


      isym = 20     inv. 120 deg rotation - cryst. axis [0,0,-1] 

 cryst.   s(20) = (     1          1          0      )    f =( -0.3333333 )
                  (    -1          0          0      )       (  0.3333333 )
                  (     0          0         -1      )       ( -0.5000000 )

 cart.    s(20) = (  0.5000000 -0.8660254  0.0000000 )    f =( -0.5000000 )
                  (  0.8660254  0.5000000  0.0000000 )       (  0.2886751 )
                  (  0.0000000  0.0000000 -1.0000000 )       ( -0.8115277 )


      isym = 21     inv. 180 deg rotation - cryst. axis [1,-1,0] 

 cryst.   s(21) = (     0          1          0      )    f =( -0.3333333 )
                  (     1          0          0      )       (  0.3333333 )
                  (     0          0          1      )       (  0.5000000 )

 cart.    s(21) = ( -0.5000000  0.8660254  0.0000000 )    f =( -0.5000000 )
                  (  0.8660254  0.5000000  0.0000000 )       (  0.2886751 )
                  (  0.0000000  0.0000000  1.0000000 )       (  0.8115277 )


      isym = 22     inv. 180 deg rotation - cryst. axis [2,1,0]  

 cryst.   s(22) = (    -1         -1          0      )    f =( -0.3333333 )
                  (     0          1          0      )       (  0.3333333 )
                  (     0          0          1      )       (  0.5000000 )

 cart.    s(22) = ( -0.5000000 -0.8660254  0.0000000 )    f =( -0.5000000 )
                  ( -0.8660254  0.5000000  0.0000000 )       (  0.2886751 )
                  (  0.0000000  0.0000000  1.0000000 )       (  0.8115277 )


      isym = 23     inv. 180 deg rotation - cryst. axis [0,1,0]  

 cryst.   s(23) = (     1          1          0      )
                  (     0         -1          0      )
                  (     0          0          1      )

 cart.    s(23) = (  0.5000000  0.8660254  0.0000000 )
                  (  0.8660254 -0.5000000  0.0000000 )
                  (  0.0000000  0.0000000  1.0000000 )


      isym = 24     inv. 180 deg rotation - cryst. axis [1,1,0]  

 cryst.   s(24) = (     0         -1          0      )
                  (    -1          0          0      )
                  (     0          0          1      )

 cart.    s(24) = (  0.5000000 -0.8660254  0.0000000 )
                  ( -0.8660254 -0.5000000  0.0000000 )
                  (  0.0000000  0.0000000  1.0000000 )


   Cartesian axes

     site n.     atom                  positions (alat units)
         1           Co  tau(   1) = (   0.0000000   0.0000000   0.0000000  )
         2           Co  tau(   2) = (   0.0000000   0.5773503   0.8115277  )

   Crystallographic axes

     site n.     atom                  positions (cryst. coord.)
         1           Co  tau(   1) = (  0.0000000  0.0000000  0.0000000  )
         2           Co  tau(   2) = (  0.3333333  0.6666667  0.5000000  )

     number of k points=    50  gaussian smearing, width (Ry)=  0.0010
                       cart. coord. in units 2pi/alat
        k(    1) = (   0.0000000   0.0000000   0.0000000), wk =   0.0400000
        k(    2) = (   0.0357143   0.0206197   0.0000000), wk =   0.0400000
        k(    3) = (   0.0714286   0.0412393   0.0000000), wk =   0.0400000
        k(    4) = (   0.1071429   0.0618590   0.0000000), wk =   0.0400000
        k(    5) = (   0.1428571   0.0824786   0.0000000), wk =   0.0400000
        k(    6) = (   0.1785714   0.1030983   0.0000000), wk =   0.0400000
        k(    7) = (   0.2142857   0.1237179   0.0000000), wk =   0.0400000
        k(    8) = (   0.2500000   0.1443376   0.0000000), wk =   0.0400000
        k(    9) = (   0.2857143   0.1649572   0.0000000), wk =   0.0400000
        k(   10) = (   0.3214286   0.1855769   0.0000000), wk =   0.0400000
        k(   11) = (   0.3571429   0.2061965   0.0000000), wk =   0.0400000
        k(   12) = (   0.3928571   0.2268162   0.0000000), wk =   0.0400000
        k(   13) = (   0.4285714   0.2474358   0.0000000), wk =   0.0400000
        k(   14) = (   0.4642857   0.2680555   0.0000000), wk =   0.0400000
        k(   15) = (   0.5000000   0.2886751   0.0000000), wk =   0.0400000
        k(   16) = (   0.4791667   0.3247595   0.0000000), wk =   0.0400000
        k(   17) = (   0.4583333   0.3608439   0.0000000), wk =   0.0400000
        k(   18) = (   0.4375000   0.3969283   0.0000000), wk =   0.0400000
        k(   19) = (   0.4166667   0.4330127   0.0000000), wk =   0.0400000
        k(   20) = (   0.3958333   0.4690971   0.0000000), wk =   0.0400000
        k(   21) = (   0.3750000   0.5051815   0.0000000), wk =   0.0400000
        k(   22) = (   0.3541667   0.5412659   0.0000000), wk =   0.0400000
        k(   23) = (   0.3333333   0.5773503   0.0000000), wk =   0.0400000
        k(   24) = (   0.3148148   0.5452753   0.0000000), wk =   0.0400000
        k(   25) = (   0.2962963   0.5132002   0.0000000), wk =   0.0400000
        k(   26) = (   0.2777778   0.4811252   0.0000000), wk =   0.0400000
        k(   27) = (   0.2592593   0.4490502   0.0000000), wk =   0.0400000
        k(   28) = (   0.2407407   0.4169752   0.0000000), wk =   0.0400000
        k(   29) = (   0.2222222   0.3849002   0.0000000), wk =   0.0400000
        k(   30) = (   0.2037037   0.3528252   0.0000000), wk =   0.0400000
        k(   31) = (   0.1851852   0.3207501   0.0000000), wk =   0.0400000
        k(   32) = (   0.1666667   0.2886751   0.0000000), wk =   0.0400000
        k(   33) = (   0.1481481   0.2566001   0.0000000), wk =   0.0400000
        k(   34) = (   0.1296296   0.2245251   0.0000000), wk =   0.0400000
        k(   35) = (   0.1111111   0.1924501   0.0000000), wk =   0.0400000
        k(   36) = (   0.0925926   0.1603751   0.0000000), wk =   0.0400000
        k(   37) = (   0.0740741   0.1283001   0.0000000), wk =   0.0400000
        k(   38) = (   0.0555556   0.0962250   0.0000000), wk =   0.0400000
        k(   39) = (   0.0370370   0.0641500   0.0000000), wk =   0.0400000
        k(   40) = (   0.0185185   0.0320750   0.0000000), wk =   0.0400000
        k(   41) = (   0.0000000   0.0000000   0.0000000), wk =   0.0400000
        k(   42) = (   0.0000000   0.0000000   0.0342290), wk =   0.0400000
        k(   43) = (   0.0000000   0.0000000   0.0684580), wk =   0.0400000
        k(   44) = (   0.0000000   0.0000000   0.1026870), wk =   0.0400000
        k(   45) = (   0.0000000   0.0000000   0.1369160), wk =   0.0400000
        k(   46) = (   0.0000000   0.0000000   0.1711450), wk =   0.0400000
        k(   47) = (   0.0000000   0.0000000   0.2053740), wk =   0.0400000
        k(   48) = (   0.0000000   0.0000000   0.2396030), wk =   0.0400000
        k(   49) = (   0.0000000   0.0000000   0.2738320), wk =   0.0400000
        k(   50) = (   0.0000000   0.0000000   0.3080609), wk =   0.0400000

                       cryst. coord.
        k(    1) = (   0.0000000   0.0000000   0.0000000), wk =   0.0400000
        k(    2) = (   0.0357143   0.0000000   0.0000000), wk =   0.0400000
        k(    3) = (   0.0714286   0.0000000   0.0000000), wk =   0.0400000
        k(    4) = (   0.1071429   0.0000000   0.0000000), wk =   0.0400000
        k(    5) = (   0.1428571   0.0000000   0.0000000), wk =   0.0400000
        k(    6) = (   0.1785714   0.0000000   0.0000000), wk =   0.0400000
        k(    7) = (   0.2142857   0.0000000   0.0000000), wk =   0.0400000
        k(    8) = (   0.2500000   0.0000000   0.0000000), wk =   0.0400000
        k(    9) = (   0.2857143   0.0000000   0.0000000), wk =   0.0400000
        k(   10) = (   0.3214286   0.0000000   0.0000000), wk =   0.0400000
        k(   11) = (   0.3571429   0.0000000   0.0000000), wk =   0.0400000
        k(   12) = (   0.3928571   0.0000000   0.0000000), wk =   0.0400000
        k(   13) = (   0.4285714   0.0000000   0.0000000), wk =   0.0400000
        k(   14) = (   0.4642857   0.0000000   0.0000000), wk =   0.0400000
        k(   15) = (   0.5000000   0.0000000   0.0000000), wk =   0.0400000
        k(   16) = (   0.4791667   0.0416667   0.0000000), wk =   0.0400000
        k(   17) = (   0.4583333   0.0833333   0.0000000), wk =   0.0400000
        k(   18) = (   0.4375000   0.1250000   0.0000000), wk =   0.0400000
        k(   19) = (   0.4166667   0.1666667   0.0000000), wk =   0.0400000
        k(   20) = (   0.3958333   0.2083333   0.0000000), wk =   0.0400000
        k(   21) = (   0.3750000   0.2500000   0.0000000), wk =   0.0400000
        k(   22) = (   0.3541667   0.2916667   0.0000000), wk =   0.0400000
        k(   23) = (   0.3333333   0.3333333   0.0000000), wk =   0.0400000
        k(   24) = (   0.3148148   0.3148148   0.0000000), wk =   0.0400000
        k(   25) = (   0.2962963   0.2962963   0.0000000), wk =   0.0400000
        k(   26) = (   0.2777778   0.2777778   0.0000000), wk =   0.0400000
        k(   27) = (   0.2592593   0.2592593   0.0000000), wk =   0.0400000
        k(   28) = (   0.2407407   0.2407407   0.0000000), wk =   0.0400000
        k(   29) = (   0.2222222   0.2222222   0.0000000), wk =   0.0400000
        k(   30) = (   0.2037037   0.2037037   0.0000000), wk =   0.0400000
        k(   31) = (   0.1851852   0.1851852   0.0000000), wk =   0.0400000
        k(   32) = (   0.1666667   0.1666667   0.0000000), wk =   0.0400000
        k(   33) = (   0.1481481   0.1481481   0.0000000), wk =   0.0400000
        k(   34) = (   0.1296296   0.1296296   0.0000000), wk =   0.0400000
        k(   35) = (   0.1111111   0.1111111   0.0000000), wk =   0.0400000
        k(   36) = (   0.0925926   0.0925926   0.0000000), wk =   0.0400000
        k(   37) = (   0.0740741   0.0740741   0.0000000), wk =   0.0400000
        k(   38) = (   0.0555556   0.0555556   0.0000000), wk =   0.0400000
        k(   39) = (   0.0370370   0.0370370   0.0000000), wk =   0.0400000
        k(   40) = (   0.0185185   0.0185185   0.0000000), wk =   0.0400000
        k(   41) = (   0.0000000   0.0000000   0.0000000), wk =   0.0400000
        k(   42) = (   0.0000000   0.0000000   0.0555556), wk =   0.0400000
        k(   43) = (   0.0000000   0.0000000   0.1111111), wk =   0.0400000
        k(   44) = (   0.0000000   0.0000000   0.1666667), wk =   0.0400000
        k(   45) = (   0.0000000   0.0000000   0.2222222), wk =   0.0400000
        k(   46) = (   0.0000000   0.0000000   0.2777778), wk =   0.0400000
        k(   47) = (   0.0000000   0.0000000   0.3333333), wk =   0.0400000
        k(   48) = (   0.0000000   0.0000000   0.3888889), wk =   0.0400000
        k(   49) = (   0.0000000   0.0000000   0.4444444), wk =   0.0400000
        k(   50) = (   0.0000000   0.0000000   0.5000000), wk =   0.0400000

     Dense  grid:     7187 G-vectors     FFT dimensions: (  24,  24,  36)

     Smooth grid:     5191 G-vectors     FFT dimensions: (  20,  20,  32)

     Estimated max dynamical RAM per process >      14.92Mb

     Check: negative/imaginary core charge=   -0.000059    0.000000

     The potential is recalculated from file :
     ./pwscf.save/charge-density.dat

     Starting wfc are   26 randomized atomic wfcs

     Band Structure Calculation
     Davidson diagonalization with overlap

     Computing kpt #:     1
     total cpu time spent up to now is        0.7 secs

     Computing kpt #:     2
     total cpu time spent up to now is        0.8 secs

     Computing kpt #:     3
     total cpu time spent up to now is        0.9 secs

     Computing kpt #:     4
     total cpu time spent up to now is        1.0 secs

     Computing kpt #:     5
     total cpu time spent up to now is        1.2 secs

     Computing kpt #:     6
     total cpu time spent up to now is        1.3 secs

     Computing kpt #:     7
     total cpu time spent up to now is        1.4 secs

     Computing kpt #:     8
     total cpu time spent up to now is        1.6 secs

     Computing kpt #:     9
     total cpu time spent up to now is        1.7 secs

     Computing kpt #:    10
     total cpu time spent up to now is        1.8 secs

     Computing kpt #:    11
     total cpu time spent up to now is        2.0 secs

     Computing kpt #:    12
     total cpu time spent up to now is        2.1 secs

     Computing kpt #:    13
     total cpu time spent up to now is        2.3 secs

     Computing kpt #:    14
     total cpu time spent up to now is        2.4 secs

     Computing kpt #:    15
     total cpu time spent up to now is        2.6 secs

     Computing kpt #:    16
     total cpu time spent up to now is        2.7 secs

     Computing kpt #:    17
     total cpu time spent up to now is        2.9 secs

     Computing kpt #:    18
     total cpu time spent up to now is        3.0 secs

     Computing kpt #:    19
     total cpu time spent up to now is        3.2 secs

     Computing kpt #:    20
     total cpu time spent up to now is        3.4 secs

     Computing kpt #:    21
     total cpu time spent up to now is        3.5 secs

     Computing kpt #:    22
     total cpu time spent up to now is        3.7 secs

     Computing kpt #:    23
     total cpu time spent up to now is        3.8 secs

     Computing kpt #:    24
     total cpu time spent up to now is        3.9 secs

     Computing kpt #:    25
     total cpu time spent up to now is        4.0 secs

     Computing kpt #:    26
     total cpu time spent up to now is        4.2 secs

     Computing kpt #:    27
     total cpu time spent up to now is        4.3 secs

     Computing kpt #:    28
     total cpu time spent up to now is        4.5 secs

     Computing kpt #:    29
     total cpu time spent up to now is        4.6 secs

     Computing kpt #:    30
     total cpu time spent up to now is        4.8 secs

     Computing kpt #:    31
     total cpu time spent up to now is        4.9 secs

     Computing kpt #:    32
     total cpu time spent up to now is        5.0 secs

     Computing kpt #:    33
     total cpu time spent up to now is        5.2 secs

     Computing kpt #:    34
     total cpu time spent up to now is        5.3 secs

     Computing kpt #:    35
     total cpu time spent up to now is        5.5 secs

     Computing kpt #:    36
     total cpu time spent up to now is        5.6 secs

     Computing kpt #:    37
     total cpu time spent up to now is        5.7 secs

     Computing kpt #:    38
     total cpu time spent up to now is        5.8 secs

     Computing kpt #:    39
     total cpu time spent up to now is        6.0 secs

     Computing kpt #:    40
     total cpu time spent up to now is        6.1 secs

     Computing kpt #:    41
     total cpu time spent up to now is        6.2 secs

     Computing kpt #:    42
     total cpu time spent up to now is        6.3 secs

     Computing kpt #:    43
     total cpu time spent up to now is        6.5 secs

     Computing kpt #:    44
     total cpu time spent up to now is        6.6 secs

     Computing kpt #:    45
     total cpu time spent up to now is        6.8 secs

     Computing kpt #:    46
     total cpu time spent up to now is        6.9 secs

     Computing kpt #:    47
     total cpu time spent up to now is        7.0 secs

     Computing kpt #:    48
     total cpu time spent up to now is        7.2 secs

     Computing kpt #:    49
     total cpu time spent up to now is        7.3 secs

     Computing kpt #:    50
     total cpu time spent up to now is        7.5 secs

     ethr =  2.94E-10,  avg # of iterations =  9.2

     total cpu time spent up to now is        7.5 secs

     End of band structure calculation

          k = 0.0000 0.0000 0.0000 (   627 PWs)   bands (ev):

   -77.1658 -77.1133 -40.6034 -40.3003 -40.3003 -40.2898 -40.2552 -40.2552
     9.0911  13.3393  16.1215  16.1920  16.1920  16.5160  16.5160  16.8822
    16.8822  17.7550  17.9973  17.9973  24.5145

          k = 0.0357 0.0206 0.0000 (   629 PWs)   bands (ev):

   -77.1653 -77.1130 -40.6021 -40.3032 -40.3013 -40.2904 -40.2581 -40.2556
     9.1356  13.3685  16.0613  16.2135  16.2451  16.5038  16.5352  16.8582
    16.8679  17.3656  18.0036  18.4394  24.5200

          k = 0.0714 0.0412 0.0000 (   637 PWs)   bands (ev):

   -77.1636 -77.1122 -40.5983 -40.3116 -40.3040 -40.2919 -40.2669 -40.2571
     9.2685  13.4539  15.9627  16.2777  16.3214  16.4716  16.5920  16.7210
    16.8269  17.0047  18.0209  19.0238  24.5373

          k = 0.1071 0.0619 0.0000 (   639 PWs)   bands (ev):

   -77.1609 -77.1110 -40.5921 -40.3251 -40.3083 -40.2945 -40.2809 -40.2594
     9.4874  13.5887  15.8465  16.3655  16.3698  16.3823  16.4649  16.6845
    16.7638  16.8739  18.0460  19.6510  24.5686

          k = 0.1429 0.0825 0.0000 (   638 PWs)   bands (ev):

   -77.1573 -77.1094 -40.5837 -40.3432 -40.3141 -40.2994 -40.2981 -40.2625
     9.7884  13.7599  15.7188  15.9893  16.3121  16.5242  16.5610  16.6846
    16.7953  16.8092  18.0749  20.3157  24.6173

          k = 0.1786 0.1031 0.0000 (   636 PWs)   bands (ev):

   -77.1529 -77.1075 -40.5734 -40.3649 -40.3214 -40.3209 -40.3027 -40.2664
    10.1653  13.9471  15.5912  15.6374  16.2379  16.5951  16.6985  16.6986
    16.7156  16.9615  18.1043  21.0156  24.6872

          k = 0.2143 0.1237 0.0000 (   630 PWs)   bands (ev):

   -77.1479 -77.1055 -40.5613 -40.3891 -40.3458 -40.3283 -40.3084 -40.2707
    10.6090  14.1192  15.3221  15.4816  16.1726  16.5010  16.6311  16.8675
    16.8987  17.1356  18.1318  21.7488  24.7810

          k = 0.2500 0.1443 0.0000 (   630 PWs)   bands (ev):

   -77.1426 -77.1035 -40.5478 -40.4148 -40.3712 -40.3361 -40.3152 -40.2754
    11.1064  14.2379  15.0449  15.4105  16.1367  16.4070  16.5443  17.0715
    17.1165  17.3242  18.1561  22.5130  24.8951

          k = 0.2857 0.1650 0.0000 (   628 PWs)   bands (ev):

   -77.1371 -77.1017 -40.5334 -40.4406 -40.3964 -40.3438 -40.3228 -40.2802
    11.6381  14.2761  14.8062  15.3874  16.1487  16.3173  16.4588  17.3168
    17.3417  17.5197  18.1765  23.3057  25.0037

          k = 0.3214 0.1856 0.0000 (   638 PWs)   bands (ev):

   -77.1316 -77.1001 -40.5186 -40.4652 -40.4202 -40.3510 -40.3313 -40.2847
    12.1757  14.2428  14.6057  15.4037  16.2110  16.2354  16.3784  17.5616
    17.6117  17.7136  18.1930  24.1228  25.0089

          k = 0.3571 0.2062 0.0000 (   638 PWs)   bands (ev):

   -77.1265 -77.0990 -40.5039 -40.4873 -40.4414 -40.3575 -40.3402 -40.2889
    12.6803  14.1696  14.4428  15.4540  16.1643  16.3031  16.3070  17.7621
    17.8975  17.9661  18.2056  24.6626  24.9575

          k = 0.3929 0.2268 0.0000 (   640 PWs)   bands (ev):

   -77.1220 -77.0983 -40.5058 -40.4902 -40.4589 -40.3628 -40.3492 -40.2924
    13.1074  14.0834  14.3170  15.5434  16.1064  16.2477  16.3960  17.9296
    18.0615  18.2149  18.3916  23.8618  25.7955

          k = 0.4286 0.2474 0.0000 (   644 PWs)   bands (ev):

   -77.1184 -77.0979 -40.5197 -40.4784 -40.4721 -40.3668 -40.3573 -40.2950
    13.4243  13.9988  14.2276  15.6622  16.0638  16.2033  16.4689  18.0545
    18.1929  18.2211  18.8938  22.8937  26.6028

          k = 0.4643 0.2681 0.0000 (   646 PWs)   bands (ev):

   -77.1160 -77.0979 -40.5284 -40.4803 -40.4703 -40.3693 -40.3632 -40.2966
    13.6278  13.9213  14.1742  15.7693  16.0376  16.1759  16.5125  18.1315
    18.2247  18.2782  19.4291  22.0210  27.2834

          k = 0.5000 0.2887 0.0000 (   660 PWs)   bands (ev):

   -77.1151 -77.0979 -40.5313 -40.4830 -40.4673 -40.3701 -40.3654 -40.2972
    13.7130  13.8747  14.1564  15.8127  16.0288  16.1666  16.5266  18.1575
    18.2259  18.3078  19.7311  21.5987  27.5858

          k = 0.4792 0.3248 0.0000 (   642 PWs)   bands (ev):

   -77.1148 -77.0979 -40.5302 -40.4819 -40.4663 -40.3723 -40.3662 -40.2998
    13.7413  13.9004  14.1643  15.7740  16.0174  16.1607  16.5320  18.1592
    18.2151  18.2783  19.7948  21.6409  27.6471

          k = 0.4583 0.3608 0.0000 (   646 PWs)   bands (ev):

   -77.1140 -77.0980 -40.5267 -40.4785 -40.4633 -40.3786 -40.3684 -40.3074
    13.8230  13.9750  14.1871  15.6675  15.9852  16.1429  16.5486  18.1597
    18.1852  18.1981  19.9812  21.7602  27.8287

          k = 0.4375 0.3969 0.0000 (   642 PWs)   bands (ev):

   -77.1127 -77.0981 -40.5210 -40.4730 -40.4585 -40.3885 -40.3721 -40.3195
    13.9490  14.0918  14.2217  15.5156  15.9379  16.1130  16.5776  18.0880
    18.1427  18.1506  20.2778  21.9403  28.1238

          k = 0.4167 0.4330 0.0000 (   642 PWs)   bands (ev):

   -77.1109 -77.0983 -40.5136 -40.4657 -40.4519 -40.4011 -40.3773 -40.3351
    14.1039  14.2390  14.2630  15.3426  15.8848  16.0714  16.6207  17.9725
    18.0963  18.1267  20.6675  22.1647  28.3111

          k = 0.3958 0.4691 0.0000 (   646 PWs)   bands (ev):

   -77.1089 -77.0988 -40.5047 -40.4570 -40.4438 -40.4148 -40.3839 -40.3527
    14.2674  14.3041  14.3994  15.1692  15.8377  16.0196  16.6783  17.8748
    18.0540  18.0866  21.1346  22.4239  26.9523

          k = 0.3750 0.5052 0.0000 (   639 PWs)   bands (ev):

   -77.1067 -77.0995 -40.4954 -40.4479 -40.4344 -40.4280 -40.3920 -40.3705
    14.3375  14.4178  14.5483  15.0137  15.8092  15.9610  16.7439  17.8160
    18.0219  18.0309  21.6660  22.7176  25.6343

          k = 0.3542 0.5413 0.0000 (   643 PWs)   bands (ev):

   -77.1045 -77.1007 -40.4876 -40.4404 -40.4375 -40.4239 -40.4016 -40.3852
    14.3575  14.5384  14.6424  14.9045  15.8099  15.9007  16.7995  17.8147
    17.9607  18.0028  22.2427  23.0542  24.4002

          k = 0.3333 0.5774 0.0000 (   651 PWs)   bands (ev):

   -77.1024 -77.1024 -40.4846 -40.4391 -40.4391 -40.4126 -40.4126 -40.3913
    14.3633  14.6231  14.6231  14.8790  15.8447  15.8447  16.8216  17.8771
    17.8771  17.9967  22.6872  23.4476  23.4476

          k = 0.3148 0.5453 0.0000 (   643 PWs)   bands (ev):

   -77.1044 -77.1008 -40.4861 -40.4447 -40.4331 -40.4234 -40.4021 -40.3872
    14.3607  14.5479  14.6713  14.8704  15.8037  15.9027  16.8039  17.7928
    17.9697  18.0009  22.1059  23.7189  23.8560

          k = 0.2963 0.5132 0.0000 (   647 PWs)   bands (ev):

   -77.1068 -77.0995 -40.4881 -40.4523 -40.4352 -40.4229 -40.3913 -40.3778
    14.3579  14.4493  14.7005  14.8268  15.7750  15.9810  16.7544  17.7000
    18.0118  18.0670  21.2855  24.3234  24.3762

          k = 0.2778 0.4811 0.0000 (   653 PWs)   bands (ev):

   -77.1098 -77.0985 -40.4880 -40.4583 -40.4478 -40.4110 -40.3805 -40.3663
    14.2982  14.3625  14.7169  14.7659  15.7619  16.0733  16.6806  17.5999
    18.0274  18.1393  20.5389  24.8372  25.1162

          k = 0.2593 0.4491 0.0000 (   641 PWs)   bands (ev):

   -77.1133 -77.0979 -40.4846 -40.4613 -40.4611 -40.3983 -40.3699 -40.3541
    14.0479  14.3815  14.7245  14.7317  15.7668  16.1732  16.5896  17.4940
    18.0454  18.1649  19.8911  25.3469  25.9165

          k = 0.2407 0.4170 0.0000 (   641 PWs)   bands (ev):

   -77.1173 -77.0978 -40.4773 -40.4750 -40.4606 -40.3856 -40.3596 -40.3417
    13.6896  14.4208  14.7237  14.7411  15.7909  16.2754  16.4887  17.3837
    18.0638  18.1320  19.3404  25.7204  26.6286

          k = 0.2222 0.3849 0.0000 (   643 PWs)   bands (ev):

   -77.1216 -77.0982 -40.4892 -40.4660 -40.4560 -40.3730 -40.3497 -40.3296
    13.2478  14.4853  14.7109  14.7879  15.8347  16.3755  16.3869  17.2707
    18.0380  18.0807  18.8745  25.7851  25.7937

          k = 0.2037 0.3528 0.0000 (   635 PWs)   bands (ev):

   -77.1263 -77.0989 -40.5035 -40.4510 -40.4475 -40.3610 -40.3404 -40.3180
    12.7535  14.5785  14.6787  14.8645  15.8975  16.2948  16.4702  17.1569
    17.8887  18.0947  18.4765  24.9682  25.6267

          k = 0.1852 0.3208 0.0000 (   637 PWs)   bands (ev):

   -77.1313 -77.1000 -40.5177 -40.4357 -40.4328 -40.3496 -40.3317 -40.3071
    12.2354  14.6176  14.7028  14.9648  15.9778  16.2243  16.5573  17.0440
    17.6958  18.1048  18.1308  24.1790  25.3898

          k = 0.1667 0.2887 0.0000 (   635 PWs)   bands (ev):

   -77.1364 -77.1015 -40.5316 -40.4209 -40.4122 -40.3389 -40.3238 -40.2970
    11.7176  14.5204  14.8602  15.0835  16.0733  16.1849  16.6353  16.9335
    17.4755  17.8257  18.1099  23.4178  25.1667

          k = 0.1481 0.2566 0.0000 (   631 PWs)   bands (ev):

   -77.1415 -77.1031 -40.5449 -40.4041 -40.3899 -40.3289 -40.3166 -40.2879
    11.2189  14.3862  15.0516  15.2153  16.1799  16.1808  16.7037  16.8271
    17.2446  17.5542  18.1096  22.6850  24.9821

          k = 0.1296 0.2245 0.0000 (   625 PWs)   bands (ev):

   -77.1464 -77.1049 -40.5574 -40.3860 -40.3673 -40.3196 -40.3103 -40.2798
    10.7537  14.2223  15.2776  15.3548  16.2053  16.2965  16.7259  16.7625
    17.0186  17.3131  18.1037  21.9807  24.8383

          k = 0.1111 0.1925 0.0000 (   629 PWs)   bands (ev):

   -77.1510 -77.1067 -40.5688 -40.3676 -40.3459 -40.3104 -40.3048 -40.2729
    10.3330  14.0416  15.4964  15.5380  16.2525  16.4158  16.6307  16.8095
    16.8122  17.1016  18.0923  21.3053  24.7305

          k = 0.0926 0.1604 0.0000 (   633 PWs)   bands (ev):

   -77.1552 -77.1085 -40.5789 -40.3498 -40.3279 -40.3002 -40.3002 -40.2671
     9.9650  13.8590  15.6346  15.8319  16.3116  16.5335  16.5417  16.6256
    16.8542  16.9208  18.0760  20.6590  24.6518

          k = 0.0741 0.1283 0.0000 (   639 PWs)   bands (ev):

   -77.1589 -77.1101 -40.5874 -40.3336 -40.3153 -40.2965 -40.2880 -40.2625
     9.6563  13.6887  15.7644  16.1565  16.3723  16.4584  16.4729  16.6438
    16.7726  16.8914  18.0563  20.0422  24.5959

          k = 0.0556 0.0962 0.0000 (   635 PWs)   bands (ev):

   -77.1618 -77.1114 -40.5943 -40.3198 -40.3079 -40.2936 -40.2752 -40.2591
     9.4116  13.5432  15.8817  16.3474  16.3802  16.4334  16.5006  16.6585
    16.7403  16.9349  18.0353  19.4558  24.5575

          k = 0.0370 0.0642 0.0000 (   633 PWs)   bands (ev):

   -77.1640 -77.1124 -40.5993 -40.3093 -40.3035 -40.2915 -40.2645 -40.2568
     9.2343  13.4323  15.9841  16.2616  16.3064  16.4773  16.5786  16.7850
    16.8163  17.0628  18.0161  18.9010  24.5328

          k = 0.0185 0.0321 0.0000 (   629 PWs)   bands (ev):

   -77.1654 -77.1131 -40.6023 -40.3026 -40.3011 -40.2903 -40.2576 -40.2556
     9.1270  13.3629  16.0701  16.2094  16.2377  16.5061  16.5316  16.8652
    16.8687  17.4114  18.0023  18.3830  24.5190

          k = 0.0000 0.0000 0.0000 (   627 PWs)   bands (ev):

   -77.1658 -77.1133 -40.6034 -40.3003 -40.3003 -40.2898 -40.2552 -40.2552
     9.0911  13.3393  16.1215  16.1920  16.1920  16.5160  16.5160  16.8822
    16.8822  17.7550  17.9973  17.9973  24.5145

          k = 0.0000 0.0000 0.0342 (   621 PWs)   bands (ev):

   -77.1654 -77.1137 -40.6010 -40.3000 -40.3000 -40.2923 -40.2555 -40.2555
     9.1218  13.3264  16.1127  16.1824  16.1824  16.5070  16.5070  16.9031
    16.9031  17.6430  17.9961  17.9961  24.6941

          k = 0.0000 0.0000 0.0685 (   639 PWs)   bands (ev):

   -77.1642 -77.1149 -40.5940 -40.2994 -40.2990 -40.2990 -40.2565 -40.2565
     9.2136  13.2840  16.0865  16.1581  16.1581  16.4810  16.4810  16.9612
    16.9612  17.3465  17.9915  17.9915  25.1964

          k = 0.0000 0.0000 0.1027 (   639 PWs)   bands (ev):

   -77.1623 -77.1168 -40.5826 -40.3111 -40.2973 -40.2973 -40.2582 -40.2582
     9.3655  13.2010  16.0447  16.1282  16.1282  16.4406  16.4406  16.9532
    17.0462  17.0462  17.9816  17.9816  25.9438

          k = 0.0000 0.0000 0.1369 (   633 PWs)   bands (ev):

   -77.1597 -77.1194 -40.5671 -40.3270 -40.2950 -40.2950 -40.2604 -40.2604
     9.5754  13.0605  15.9898  16.1009  16.1009  16.3898  16.3898  16.5502
    17.1481  17.1481  17.9637  17.9637  26.8641

          k = 0.0000 0.0000 0.1711 (   652 PWs)   bands (ev):

   -77.1565 -77.1227 -40.5480 -40.3465 -40.2923 -40.2923 -40.2632 -40.2632
     9.8404  12.8450  15.9258  16.0817  16.0817  16.2033  16.3330  16.3330
    17.2589  17.2589  17.9351  17.9351  27.9063

          k = 0.0000 0.0000 0.2054 (   646 PWs)   bands (ev):

   -77.1527 -77.1264 -40.5258 -40.3690 -40.2890 -40.2890 -40.2665 -40.2665
    10.1565  12.5475  15.8579  15.9492  16.0738  16.0738  16.2746  16.2746
    17.3724  17.3724  17.8937  17.8937  29.0369

          k = 0.0000 0.0000 0.2396 (   646 PWs)   bands (ev):

   -77.1486 -77.1306 -40.5012 -40.3939 -40.2855 -40.2855 -40.2700 -40.2700
    10.5175  12.1794  15.7929  15.7939  16.0788  16.0788  16.2186  16.2186
    17.4837  17.4837  17.8381  17.8381  30.2337

          k = 0.0000 0.0000 0.2738 (   646 PWs)   bands (ev):

   -77.1441 -77.1350 -40.4749 -40.4204 -40.2817 -40.2817 -40.2738 -40.2738
    10.9152  11.7665  15.7220  15.7399  16.0967  16.0967  16.1685  16.1685
    17.5889  17.5889  17.7682  17.7682  31.4804

          k = 0.0000 0.0000 0.3081 (   652 PWs)   bands (ev):

   -77.1396 -77.1396 -40.4477 -40.4477 -40.2777 -40.2777 -40.2777 -40.2777
    11.3373  11.3373  15.7109  15.7109  16.1271  16.1271  16.1271  16.1271
    17.6845  17.6845  17.6845  17.6845  32.7634

     Writing output data file pwscf.save

     init_run     :      0.58s CPU      0.43s WALL (       1 calls)
     electrons    :     14.33s CPU      6.91s WALL (       1 calls)

     Called by init_run:
     wfcinit      :      0.00s CPU      0.00s WALL (       1 calls)
     wfcinit:atom :      0.05s CPU      0.03s WALL (      50 calls)
     wfcinit:wfcr :      1.19s CPU      0.65s WALL (      50 calls)
     potinit      :      0.02s CPU      0.02s WALL (       1 calls)

     Called by electrons:
     c_bands      :     14.33s CPU      6.90s WALL (       1 calls)
     v_of_rho     :      0.02s CPU      0.02s WALL (       1 calls)
     v_h          :      0.00s CPU      0.00s WALL (       1 calls)
     v_xc         :      0.02s CPU      0.02s WALL (       1 calls)
     newd         :      0.02s CPU      0.05s WALL (       1 calls)

     Called by c_bands:
     init_us_2    :      0.00s CPU      0.03s WALL (      50 calls)
     cegterg      :     12.39s CPU      5.87s WALL (      51 calls)

     Called by sum_band:

     Called by *egterg:
     h_psi        :      7.08s CPU      3.68s WALL (     563 calls)
     s_psi        :      0.17s CPU      0.08s WALL (     563 calls)
     g_psi        :      0.11s CPU      0.06s WALL (     462 calls)
     cdiaghg      :      4.02s CPU      2.06s WALL (     512 calls)
     cegterg:over :      0.86s CPU      0.19s WALL (     462 calls)
     cegterg:upda :      0.66s CPU      0.17s WALL (     462 calls)
     cegterg:last :      0.50s CPU      0.10s WALL (     126 calls)

     Called by h_psi:
     h_psi:pot    :      7.00s CPU      3.63s WALL (     563 calls)
     h_psi:calbec :      0.33s CPU      0.11s WALL (     563 calls)
     vloc_psi     :      6.28s CPU      3.41s WALL (     563 calls)
     add_vuspsi   :      0.39s CPU      0.10s WALL (     563 calls)

     General routines
     calbec       :      0.28s CPU      0.10s WALL (     563 calls)
     fft          :      0.02s CPU      0.01s WALL (      13 calls)
     ffts         :      0.00s CPU      0.00s WALL (       1 calls)
     fftw         :      4.41s CPU      2.62s WALL (   17678 calls)
     interpolate  :      0.00s CPU      0.00s WALL (       1 calls)
     davcio       :      0.00s CPU      0.01s WALL (      50 calls)

     Parallel routines
     fft_scatter  :      0.58s CPU      0.41s WALL (   17692 calls)

     PWSCF        :    15.28s CPU         7.78s WALL


   This run was terminated on:  14: 4: 2  25Feb2021            

=------------------------------------------------------------------------------=
   JOB DONE.
=------------------------------------------------------------------------------=
