element =  Hf
struct =  hcp
nbands =  -4
path =  GMKGA
kpts =  (8,8,4)
lattice constant a =  3.196
lattice constant b =  3.196
lattice constant c =  5.051
alpha angle =  90.0

  ___ ___ ___ _ _ _  
 |   |   |_  | | | | 
 | | | | | . | | | | 
 |__ |  _|___|_____|  1.3.1b1
 |___|_|             

User:   inukai@DESKTOP-12SE80T
Date:   Fri Feb 12 03:37:05 2021
Arch:   x86_64
Pid:    18960
Python: 3.6.9
gpaw:   /usr/lib/python3/dist-packages/gpaw
_gpaw:  /usr/lib/python3/dist-packages/_gpaw.cpython-36m-x86_64-linux-gnu.so
ase:    /home/inukai/hotcent/ase-3.19.3/ase (version 3.19.3)
numpy:  /home/inukai/.local/lib/python3.6/site-packages/numpy (version 1.19.5)
scipy:  /home/inukai/.local/lib/python3.6/site-packages/scipy (version 1.5.4)
units:  Angstrom and eV
cores:  1

Input parameters:
  kpts: [8 8 4]
  maxiter: 1500
  mixer: {backend: pulay,
          beta: 0.01,
          method: separate,
          nmaxold: 11,
          weight: 100.0}
  mode: {ecut: 400.0,
         name: pw}
  occupations: {name: fermi-dirac,
                width: 0.02}
  spinpol: True
  xc: PBE

System changes: positions, numbers, cell, pbc, initial_charges, initial_magmoms 

Initialize ...

Hf-setup:
  name: Hafnium
  id: 41d1758baa6c136412a1f38df6b946b0
  Z: 72
  valence: 12
  core: 60
  charge: 0.0
  file: /usr/share/gpaw-setups/Hf.PBE.gz
  cutoffs: 1.30(comp), 2.36(filt), 4.02(core), lmax=2
  valence states:
                energy  radius
    5s(2.00)   -66.831   1.397
    6s(2.00)    -5.097   1.397
    5p(6.00)   -35.599   1.307
    6p(0.00)    -1.401   1.307
    5d(2.00)    -2.699   1.334
    *d          24.513   1.334

  Using partial waves for Hf as LCAO basis

Reference energy: -819772.230551

Spin-polarized calculation.
Magnetic moment:  0.000000

Occupation numbers:
  Fermi-Dirac: width=0.0200 eV

Convergence criteria:
  Maximum total energy change: 0.0005 eV / electron
  Maximum integral of absolute density change: 0.0001 electrons
  Maximum integral of absolute eigenstate change: 4e-08 eV^2
  Maximum number of iterations: 1500

Symmetries present (total): 12

  ( 1  1  0)  ( 1  1  0)  ( 1  0  0)  ( 1  0  0)  ( 0  1  0)  ( 0  1  0)
  ( 0 -1  0)  ( 0 -1  0)  ( 0  1  0)  ( 0  1  0)  (-1 -1  0)  (-1 -1  0)
  ( 0  0  1)  ( 0  0 -1)  ( 0  0  1)  ( 0  0 -1)  ( 0  0  1)  ( 0  0 -1)

  ( 0 -1  0)  ( 0 -1  0)  (-1  0  0)  (-1  0  0)  (-1 -1  0)  (-1 -1  0)
  (-1  0  0)  (-1  0  0)  ( 1  1  0)  ( 1  1  0)  ( 1  0  0)  ( 1  0  0)
  ( 0  0  1)  ( 0  0 -1)  ( 0  0  1)  ( 0  0 -1)  ( 0  0  1)  ( 0  0 -1)
Note: your k-points are not as symmetric as your crystal!

256 k-points: 8 x 8 x 4 Monkhorst-Pack grid
40 k-points in the irreducible part of the Brillouin zone
       k-points in crystal coordinates                weights
   0:     0.06250000   -0.06250000    0.12500000          4/256
   1:     0.06250000   -0.06250000    0.37500000          4/256
   2:     0.06250000    0.06250000    0.12500000          4/256
   3:     0.06250000    0.06250000    0.37500000          4/256
   4:     0.18750000   -0.18750000    0.12500000          4/256
   5:     0.18750000   -0.18750000    0.37500000          4/256
   6:     0.18750000   -0.06250000    0.12500000          8/256
   7:     0.18750000   -0.06250000    0.37500000          8/256
   8:     0.18750000    0.06250000    0.12500000          8/256
   9:     0.18750000    0.06250000    0.37500000          8/256
          ...
  39:     0.43750000    0.43750000    0.37500000          4/256

Wave functions: Plane wave expansion
  Cutoff energy: 400.000 eV
  Number of coefficients (min, max): 801, 819
  Using FFTW library
  Eigensolver: None  MatrixOperator buffer_size: default value or 
                              see value of nblock in input file
Diagonalizer layout: Serial LAPACKOrthonormalizer layout: Serial LAPACK 

Davidson(niter=1, smin=None, normalize=True) 

Densities:
  Coarse grid: 14*14*24 grid
  Fine grid: 28*28*48 grid
  Total Charge: 0.000000 

Density mixing:
  Method: separate
  Backend: pulay
  Linear mixing parameter: 0.01
  Mixing with 11 old densities
  Damping of long wave oscillations: 100 

Hamiltonian:
  XC and Coulomb potentials evaluated on a 28*28*48 grid
  Using the PBE Exchange-Correlation functional
 

Memory estimate:
  Process memory now: 929.27 MiB
  Calculator: 36.74 MiB
    Density: 3.56 MiB
      Arrays: 1.26 MiB
      Localized functions: 0.73 MiB
      Mixer: 1.58 MiB
    Hamiltonian: 0.95 MiB
      Arrays: 0.93 MiB
      XC: 0.00 MiB
      Poisson: 0.00 MiB
      vbar: 0.01 MiB
    Wavefunctions: 32.23 MiB
      Arrays psit_nG: 25.99 MiB
      Eigensolver: 0.49 MiB
      Projections: 1.14 MiB
      Projectors: 3.71 MiB
      Overlap op: 0.34 MiB
      PW-descriptor: 0.55 MiB

Total number of cores used: 1

Number of atoms: 2
Number of atomic orbitals: 26
Number of bands in calculation: 26
Bands to converge: occupied states only
Number of valence electrons: 24

... initialized

Initializing position-dependent things.

Density initialized from atomic densities
Creating initial wave functions:
  26 bands from LCAO basis set

                  
                  
                  
                  
         Hf       
                  
                  
                  
       Hf         
                  
                  
                  
                  

Positions:
   0 Hf     0.000000    0.000000    0.000000
   1 Hf    -0.000000    1.845211    2.525500

Unit cell:
           periodic     x           y           z      points  spacing
  1. axis:    yes    3.196000    0.000000    0.000000    14     0.1977
  2. axis:    yes   -1.598000    2.767817    0.000000    14     0.1977
  3. axis:    yes    0.000000    0.000000    5.051000    24     0.2105

  Lengths:   3.196000   3.196000   5.051000
  Angles:   90.000000  90.000000 120.000000

Effective grid spacing dv^(1/3) = 0.2118

                     log10-error:    total        iterations:
           time      wfs    density  energy       fermi  poisson  magmom
iter:   1  03:37:15  +2.27   +inf   -15.152175    3               +0.0000
iter:   2  03:37:19  -0.28   +inf   -15.200068    3               -0.0000
iter:   3  03:37:23  -1.05   +inf   -15.207127    2               -0.0000
iter:   4  03:37:28  -1.70  -1.30   -15.200862    3               -0.0000
iter:   5  03:37:33  -0.38  -1.31   -14.974723    5               -0.0000
iter:   6  03:37:38  -1.44  -1.87   -15.009933    4               -0.0000
iter:   7  03:37:43  -2.17  -2.14   -15.013877    3               -0.0000
iter:   8  03:37:48  -3.43  -2.13   -15.012874    3               -0.0000
iter:   9  03:37:53  -3.02  -2.13   -15.010450    2               -0.0000
iter:  10  03:37:58  -1.48  -2.21   -14.990309    4               -0.0000
iter:  11  03:38:03  -2.86  -2.94   -14.990654    2               -0.0000
iter:  12  03:38:08  -3.39  -2.87   -14.991314    2               +0.0000
iter:  13  03:38:13  -2.84  -2.90   -14.990628    3               +0.0000
iter:  14  03:38:18  -4.13  -3.35   -14.990630    2               -0.0000
iter:  15  03:38:23  -4.22  -3.51   -14.990641    2               -0.0000
iter:  16  03:38:28  -5.21  -3.34   -14.990636    2               +0.0000
iter:  17  03:38:33  -4.87  -3.37   -14.990657    2               +0.0000
iter:  18  03:38:38  -5.75  -3.42   -14.990652    2               +0.0000
iter:  19  03:38:43  -5.22  -3.46   -14.990630    2               -0.0000
iter:  20  03:38:48  -4.81  -3.55   -14.990629    2               -0.0000
iter:  21  03:38:53  -5.99  -3.80   -14.990628    2               -0.0000
iter:  22  03:38:58  -5.77  -3.78   -14.990629    2               +0.0000
iter:  23  03:39:03  -6.76  -4.21   -14.990629    2               +0.0000
iter:  24  03:39:08  -7.65  -4.73   -14.990629    2               -0.0000

Converged after 24 iterations.

Dipole moment: (-3.212790, 1.854905, 0.000000) |e|*Ang

Total magnetic moment: -0.000026
Local magnetic moments:
   0 Hf 0.000041
   1 Hf 0.000041

Energy contributions relative to reference atoms: (reference = -819772.230551)

Kinetic:        +15.006585
Potential:      -14.395387
External:        +0.000000
XC:             -14.628764
Entropy (-ST):   -0.001898
Local:           -0.972114
--------------------------
Free energy:    -14.991578
Extrapolated:   -14.990629

Spin contamination: 0.000171 electrons
Fermi level: 9.99711

Warning: Showing only first 2 kpts
                      Up                     Down
 Kpt  Band  Eigenvalues  Occupancy  Eigenvalues  Occupancy
  0    10     10.23971    0.00000     10.23963    0.00000
  0    11     10.80975    0.00000     10.80975    0.00000
  0    12     11.18360    0.00000     11.18359    0.00000
  0    13     11.46823    0.00000     11.46824    0.00000

  1    10      9.80554    0.01562      9.80549    0.01562
  1    11     10.49048    0.00000     10.49046    0.00000
  1    12     10.84321    0.00000     10.84320    0.00000
  1    13     11.02831    0.00000     11.02830    0.00000


Input parameters:
  convergence: {bands: all}
  eigensolver: {name: cg,
                niter: 5}
  fixdensity: True
  kpts: {npoints: 50,
         path: GMKGA}
  nbands: -4
  symmetry: off

Initialize ...

Hf-setup:
  name: Hafnium
  id: 41d1758baa6c136412a1f38df6b946b0
  Z: 72
  valence: 12
  core: 60
  charge: 0.0
  file: /usr/share/gpaw-setups/Hf.PBE.gz
  cutoffs: 1.30(comp), 2.36(filt), 4.02(core), lmax=2
  valence states:
                energy  radius
    5s(2.00)   -66.831   1.397
    6s(2.00)    -5.097   1.397
    5p(6.00)   -35.599   1.307
    6p(0.00)    -1.401   1.307
    5d(2.00)    -2.699   1.334
    *d          24.513   1.334

  Using partial waves for Hf as LCAO basis

Reference energy: -819772.230551

Spin-polarized calculation.
Magnetic moment:  0.000000

Occupation numbers:
  Fixed Fermi level
  Fermi-Dirac: width=0.0200 eV

Convergence criteria:
  Maximum total energy change: 0.0005 eV / electron
  Maximum integral of absolute density change: 0.0001 electrons
  Maximum integral of absolute eigenstate change: 4e-08 eV^2
  Maximum number of iterations: 1500

Symmetries present (total): 1

  ( 1  0  0)
  ( 0  1  0)
  ( 0  0  1)

50 k-points
50 k-points in the irreducible part of the Brillouin zone
       k-points in crystal coordinates                weights
   0:     0.00000000    0.00000000    0.00000000          1/50
   1:     0.03571429    0.00000000    0.00000000          1/50
   2:     0.07142857    0.00000000    0.00000000          1/50
   3:     0.10714286    0.00000000    0.00000000          1/50
   4:     0.14285714    0.00000000    0.00000000          1/50
   5:     0.17857143    0.00000000    0.00000000          1/50
   6:     0.21428571    0.00000000    0.00000000          1/50
   7:     0.25000000    0.00000000    0.00000000          1/50
   8:     0.28571429    0.00000000    0.00000000          1/50
   9:     0.32142857    0.00000000    0.00000000          1/50
          ...
  49:     0.00000000    0.00000000    0.50000000          1/50

Wave functions: Plane wave expansion
  Cutoff energy: 400.000 eV
  Number of coefficients (min, max): 797, 829
  Using FFTW library
  Eigensolver: None  MatrixOperator buffer_size: default value or 
                              see value of nblock in input file
Diagonalizer layout: Serial LAPACKOrthonormalizer layout: Serial LAPACK 

CG(niter=5, rtol=3.0e-01) 

No density mixing

Memory estimate:
  Process memory now: 1061.43 MiB
  Calculator: 31.39 MiB
    Density: 3.56 MiB
      Arrays: 1.26 MiB
      Localized functions: 0.73 MiB
      Mixer: 1.58 MiB
    Hamiltonian: 0.95 MiB
      Arrays: 0.93 MiB
      XC: 0.00 MiB
      Poisson: 0.00 MiB
      vbar: 0.01 MiB
    Wavefunctions: 26.88 MiB
      Arrays psit_nG: 20.24 MiB
      Eigensolver: 0.27 MiB
      Projections: 0.88 MiB
      Projectors: 4.64 MiB
      Overlap op: 0.21 MiB
      PW-descriptor: 0.64 MiB

Total number of cores used: 1

Number of atoms: 2
Number of atomic orbitals: 26
Number of bands in calculation: 16
Bands to converge: all
Number of valence electrons: 24

... initialized

Initializing position-dependent things.

Creating initial wave functions:
  16 bands from LCAO basis set

                  
                  
                  
                  
         Hf       
                  
                  
                  
       Hf         
                  
                  
                  
                  

Positions:
   0 Hf     0.000000    0.000000    0.000000
   1 Hf    -0.000000    1.845211    2.525500

Unit cell:
           periodic     x           y           z      points  spacing
  1. axis:    yes    3.196000    0.000000    0.000000    14     0.1977
  2. axis:    yes   -1.598000    2.767817    0.000000    14     0.1977
  3. axis:    yes    0.000000    0.000000    5.051000    24     0.2105

  Lengths:   3.196000   3.196000   5.051000
  Angles:   90.000000  90.000000 120.000000

Effective grid spacing dv^(1/3) = 0.2118

                     log10-error:    total        iterations:
           time      wfs    density  energy       fermi  poisson  magmom
iter:   1  03:39:27  +0.86          -15.353510    31              -0.0001
iter:   2  03:39:38  -0.08          -15.398030    32              -0.0001
iter:   3  03:39:55  -1.15          -15.405508    33              -0.0001
iter:   4  03:40:09  -2.08          -15.406057    29              -0.0001
iter:   5  03:40:26  -3.02          -15.406184    33              -0.0001
iter:   6  03:40:42  -3.88          -15.406194    33              -0.0001
iter:   7  03:40:58  -4.80          -15.406196    31              -0.0001
iter:   8  03:41:13  -5.41          -15.406196    33              -0.0001
iter:   9  03:41:20  -6.04          -15.406196    32              -0.0001
iter:  10  03:41:24  -6.65          -15.406196    32              -0.0001
iter:  11  03:41:26  -7.00          -15.406196    32              -0.0001
iter:  12  03:41:29  -7.26          -15.406196    32              -0.0001
iter:  13  03:41:31  -7.13          -15.406196    32              -0.0001
iter:  14  03:41:33  -7.27          -15.406196    32              -0.0001
iter:  15  03:41:35  -7.09          -15.406196    32              -0.0001
iter:  16  03:41:37  -7.18          -15.406196    32              -0.0001
iter:  17  03:41:39  -6.98          -15.406196    32              -0.0001
iter:  18  03:41:41  -7.07          -15.406196    32              -0.0001
iter:  19  03:41:42  -6.85          -15.406196    32              -0.0001
iter:  20  03:41:44  -6.94          -15.406196    32              -0.0001
iter:  21  03:41:46  -6.71          -15.406196    32              -0.0001
iter:  22  03:41:48  -6.78          -15.406196    32              -0.0001
iter:  23  03:41:49  -6.56          -15.406196    32              -0.0001
iter:  24  03:41:51  -6.65          -15.406196    32              -0.0001
iter:  25  03:41:53  -6.43          -15.406196    32              -0.0001
iter:  26  03:41:54  -6.51          -15.406196    32              -0.0001
iter:  27  03:41:56  -6.29          -15.406196    32              -0.0001
iter:  28  03:41:58  -6.36          -15.406196    32              -0.0001
iter:  29  03:41:59  -6.10          -15.406196    32              -0.0001
iter:  30  03:42:01  -6.22          -15.406196    32              -0.0001
iter:  31  03:42:03  -6.01          -15.406196    32              -0.0001
iter:  32  03:42:04  -6.08          -15.406196    32              -0.0001
iter:  33  03:42:06  -5.87          -15.406196    32              -0.0001
iter:  34  03:42:08  -5.93          -15.406196    32              -0.0001
iter:  35  03:42:10  -5.73          -15.406196    32              -0.0001
iter:  36  03:42:11  -5.79          -15.406196    32              -0.0001
iter:  37  03:42:13  -5.58          -15.406196    32              -0.0001
iter:  38  03:42:15  -5.64          -15.406196    32              -0.0001
iter:  39  03:42:16  -5.44          -15.406196    32              -0.0001
iter:  40  03:42:18  -5.50          -15.406196    32              -0.0001
iter:  41  03:42:20  -5.30          -15.406196    32              -0.0001
iter:  42  03:42:21  -5.36          -15.406196    32              -0.0001
iter:  43  03:42:23  -5.15          -15.406196    32              -0.0001
iter:  44  03:42:25  -5.23          -15.406196    32              -0.0001
iter:  45  03:42:26  -5.01          -15.406196    32              -0.0001
iter:  46  03:42:28  -5.11          -15.406196    32              -0.0001
iter:  47  03:42:29  -4.41          -15.406196    32              -0.0001
iter:  48  03:42:31  -4.51          -15.406196    32              -0.0001
iter:  49  03:42:33  -3.74          -15.406196    32              -0.0001
iter:  50  03:42:34  -5.02          -15.406196    32              -0.0001
iter:  51  03:42:36  -4.09          -15.406196    32              -0.0001
iter:  52  03:42:38  -4.50          -15.406196    32              -0.0001
iter:  53  03:42:39  -3.42          -15.406196    32              -0.0001
iter:  54  03:42:41  -5.02          -15.406196    32              -0.0001
iter:  55  03:42:43  -3.76          -15.406196    32              -0.0001
iter:  56  03:42:44  -4.55          -15.406196    32              -0.0001
iter:  57  03:42:46  -3.37          -15.406196    32              -0.0001
iter:  58  03:42:48  -4.73          -15.406196    32              -0.0001
iter:  59  03:42:50  -4.60          -15.406196    32              -0.0001
iter:  60  03:42:51  -4.73          -15.406196    32              -0.0001
iter:  61  03:42:53  -4.08          -15.406196    32              -0.0001
iter:  62  03:42:54  -4.20          -15.406196    32              -0.0001
iter:  63  03:42:56  -3.45          -15.406196    32              -0.0001
iter:  64  03:42:58  -4.21          -15.406196    32              -0.0001
iter:  65  03:43:00  -3.92          -15.406196    32              -0.0001
iter:  66  03:43:01  -4.41          -15.406196    32              -0.0001
iter:  67  03:43:03  -3.34          -15.406196    32              -0.0001
iter:  68  03:43:05  -5.03          -15.406196    32              -0.0001
iter:  69  03:43:06  -3.98          -15.406196    32              -0.0001
iter:  70  03:43:08  -4.73          -15.406196    32              -0.0001
iter:  71  03:43:10  -3.71          -15.406196    32              -0.0001
iter:  72  03:43:11  -5.00          -15.406196    32              -0.0001
iter:  73  03:43:13  -4.32          -15.406196    32              -0.0001
iter:  74  03:43:15  -4.68          -15.406196    32              -0.0001
iter:  75  03:43:16  -3.72          -15.406196    32              -0.0001
iter:  76  03:43:18  -5.27          -15.406196    32              -0.0001
iter:  77  03:43:20  -4.29          -15.406196    32              -0.0001
iter:  78  03:43:21  -5.00          -15.406196    32              -0.0001
iter:  79  03:43:23  -3.97          -15.406196    32              -0.0001
iter:  80  03:43:25  -5.28          -15.406196    32              -0.0001
iter:  81  03:43:26  -4.84          -15.406196    32              -0.0001
iter:  82  03:43:28  -5.14          -15.406196    32              -0.0001
iter:  83  03:43:30  -4.37          -15.406196    32              -0.0001
iter:  84  03:43:31  -5.41          -15.406196    32              -0.0001
iter:  85  03:43:33  -4.82          -15.406196    32              -0.0001
iter:  86  03:43:35  -5.21          -15.406196    32              -0.0001
iter:  87  03:43:36  -4.40          -15.406196    32              -0.0001
iter:  88  03:43:38  -5.40          -15.406196    32              -0.0001
iter:  89  03:43:40  -4.79          -15.406196    32              -0.0001
iter:  90  03:43:41  -5.24          -15.406196    32              -0.0001
iter:  91  03:43:43  -4.49          -15.406196    32              -0.0001
iter:  92  03:43:45  -4.81          -15.406196    32              -0.0001
iter:  93  03:43:46  -5.11          -15.406196    32              -0.0001
iter:  94  03:43:48  -5.21          -15.406196    32              -0.0001
iter:  95  03:43:50  -4.94          -15.406196    32              -0.0001
iter:  96  03:43:51  -4.84          -15.406196    32              -0.0001
iter:  97  03:43:53  -5.14          -15.406196    32              -0.0001
iter:  98  03:43:55  -4.71          -15.406196    32              -0.0001
iter:  99  03:43:56  -4.27          -15.406196    32              -0.0001
iter: 100  03:43:58  -3.85          -15.406196    32              -0.0001
iter: 101  03:44:00  -4.65          -15.406196    32              -0.0001
iter: 102  03:44:02  -3.89          -15.406196    32              -0.0001
iter: 103  03:44:03  -3.56          -15.406196    32              -0.0001
iter: 104  03:44:05  -3.75          -15.406196    32              -0.0001
iter: 105  03:44:07  -4.78          -15.406196    32              -0.0001
iter: 106  03:44:08  -4.65          -15.406196    32              -0.0001
iter: 107  03:44:10  -5.12          -15.406196    32              -0.0001
iter: 108  03:44:11  -6.09          -15.406196    32              -0.0001
iter: 109  03:44:13  -6.17          -15.406196    32              -0.0001
iter: 110  03:44:15  -6.52          -15.406196    32              -0.0001
iter: 111  03:44:16  -5.89          -15.406196    32              -0.0001
iter: 112  03:44:18  -6.92          -15.406196    32              -0.0001
iter: 113  03:44:20  -6.29          -15.406196    32              -0.0001
iter: 114  03:44:21  -6.63          -15.406196    32              -0.0001
iter: 115  03:44:23  -5.96          -15.406196    32              -0.0001
iter: 116  03:44:25  -7.01          -15.406196    32              -0.0001
iter: 117  03:44:26  -6.61          -15.406196    32              -0.0001
iter: 118  03:44:28  -6.76          -15.406196    32              -0.0001
iter: 119  03:44:30  -6.35          -15.406196    32              -0.0001
iter: 120  03:44:31  -5.87          -15.406196    32              -0.0001
iter: 121  03:44:33  -6.49          -15.406196    32              -0.0001
iter: 122  03:44:35  -6.73          -15.406196    32              -0.0001
iter: 123  03:44:36  -6.50          -15.406196    32              -0.0001
iter: 124  03:44:38  -6.43          -15.406196    32              -0.0001
iter: 125  03:44:40  -6.57          -15.406196    32              -0.0001
iter: 126  03:44:42  -6.68          -15.406196    32              -0.0001
iter: 127  03:44:43  -6.67          -15.406196    32              -0.0001
iter: 128  03:44:45  -6.55          -15.406196    32              -0.0001
iter: 129  03:44:47  -6.59          -15.406196    32              -0.0001
iter: 130  03:44:48  -7.14          -15.406196    32              -0.0001
iter: 131  03:44:50  -6.60          -15.406196    32              -0.0001
iter: 132  03:44:52  -7.21          -15.406196    32              -0.0001
iter: 133  03:44:53  -6.71          -15.406196    32              -0.0001
iter: 134  03:44:55  -7.10          -15.406196    32              -0.0001
iter: 135  03:44:57  -7.22          -15.406196    32              -0.0001
iter: 136  03:44:58  -7.08          -15.406196    32              -0.0001
iter: 137  03:45:00  -7.08          -15.406196    32              -0.0001
iter: 138  03:45:02  -7.10          -15.406196    32              -0.0001
iter: 139  03:45:03  -6.99          -15.406196    32              -0.0001
iter: 140  03:45:05  -5.97          -15.406196    32              -0.0001
iter: 141  03:45:07  -6.01          -15.406196    32              -0.0001
iter: 142  03:45:08  -7.14          -15.406196    32              -0.0001
iter: 143  03:45:10  -7.16          -15.406196    32              -0.0001
iter: 144  03:45:12  -7.13          -15.406196    32              -0.0001
iter: 145  03:45:13  -7.09          -15.406196    32              -0.0001
iter: 146  03:45:15  -7.13          -15.406196    32              -0.0001
iter: 147  03:45:17  -7.16          -15.406196    32              -0.0001
iter: 148  03:45:19  -7.13          -15.406196    32              -0.0001
iter: 149  03:45:20  -7.15          -15.406196    32              -0.0001
iter: 150  03:45:22  -7.14          -15.406196    32              -0.0001
iter: 151  03:45:24  -7.22          -15.406196    32              -0.0001
iter: 152  03:45:25  -7.14          -15.406196    32              -0.0001
iter: 153  03:45:27  -7.21          -15.406196    32              -0.0001
iter: 154  03:45:29  -7.15          -15.406196    32              -0.0001
iter: 155  03:45:30  -6.94          -15.406196    32              -0.0001
iter: 156  03:45:32  -6.73          -15.406196    32              -0.0001
iter: 157  03:45:34  -6.82          -15.406196    32              -0.0001
iter: 158  03:45:35  -7.26          -15.406196    32              -0.0001
iter: 159  03:45:37  -6.28          -15.406196    32              -0.0001
iter: 160  03:45:39  -7.26          -15.406196    32              -0.0001
iter: 161  03:45:40  -7.07          -15.406196    32              -0.0001
iter: 162  03:45:42  -7.38          -15.406196    32              -0.0001
iter: 163  03:45:43  -7.13          -15.406196    32              -0.0001
iter: 164  03:45:45  -7.38          -15.406196    32              -0.0001
iter: 165  03:45:47  -7.14          -15.406196    32              -0.0001
iter: 166  03:45:48  -7.37          -15.406196    32              -0.0001
iter: 167  03:45:50  -7.13          -15.406196    32              -0.0001
iter: 168  03:45:51  -7.37          -15.406196    32              -0.0001
iter: 169  03:45:53  -7.13          -15.406196    32              -0.0001
iter: 170  03:45:55  -7.37          -15.406196    32              -0.0001
iter: 171  03:45:56  -7.13          -15.406196    32              -0.0001
iter: 172  03:45:58  -7.36          -15.406196    32              -0.0001
iter: 173  03:46:00  -7.13          -15.406196    32              -0.0001
iter: 174  03:46:01  -7.36          -15.406196    32              -0.0001
iter: 175  03:46:03  -7.13          -15.406196    32              -0.0001
iter: 176  03:46:04  -7.35          -15.406196    32              -0.0001
iter: 177  03:46:06  -7.13          -15.406196    32              -0.0001
iter: 178  03:46:08  -7.35          -15.406196    32              -0.0001
iter: 179  03:46:09  -7.13          -15.406196    32              -0.0001
iter: 180  03:46:11  -7.35          -15.406196    32              -0.0001
iter: 181  03:46:12  -7.13          -15.406196    32              -0.0001
iter: 182  03:46:14  -7.34          -15.406196    32              -0.0001
iter: 183  03:46:16  -7.12          -15.406196    32              -0.0001
iter: 184  03:46:17  -7.34          -15.406196    32              -0.0001
iter: 185  03:46:19  -7.12          -15.406196    32              -0.0001
iter: 186  03:46:20  -7.33          -15.406196    32              -0.0001
iter: 187  03:46:22  -7.12          -15.406196    32              -0.0001
iter: 188  03:46:24  -7.33          -15.406196    32              -0.0001
iter: 189  03:46:25  -7.12          -15.406196    32              -0.0001
iter: 190  03:46:27  -7.33          -15.406196    32              -0.0001
iter: 191  03:46:28  -7.12          -15.406196    32              -0.0001
iter: 192  03:46:30  -7.32          -15.406196    32              -0.0001
iter: 193  03:46:32  -7.11          -15.406196    32              -0.0001
iter: 194  03:46:33  -7.32          -15.406196    32              -0.0001
iter: 195  03:46:35  -7.11          -15.406196    32              -0.0001
iter: 196  03:46:36  -7.32          -15.406196    32              -0.0001
iter: 197  03:46:38  -7.11          -15.406196    32              -0.0001
iter: 198  03:46:40  -7.31          -15.406196    32              -0.0001
iter: 199  03:46:41  -7.11          -15.406196    32              -0.0001
iter: 200  03:46:43  -7.31          -15.406196    32              -0.0001
iter: 201  03:46:44  -7.11          -15.406196    32              -0.0001
iter: 202  03:46:46  -7.30          -15.406196    32              -0.0001
iter: 203  03:46:48  -7.10          -15.406196    32              -0.0001
iter: 204  03:46:49  -7.30          -15.406196    32              -0.0001
iter: 205  03:46:51  -7.10          -15.406196    32              -0.0001
iter: 206  03:46:52  -7.30          -15.406196    32              -0.0001
iter: 207  03:46:54  -7.10          -15.406196    32              -0.0001
iter: 208  03:46:56  -7.29          -15.406196    32              -0.0001
iter: 209  03:46:57  -7.10          -15.406196    32              -0.0001
iter: 210  03:46:59  -7.29          -15.406196    32              -0.0001
iter: 211  03:47:00  -7.10          -15.406196    32              -0.0001
iter: 212  03:47:02  -7.29          -15.406196    32              -0.0001
iter: 213  03:47:03  -7.10          -15.406196    32              -0.0001
iter: 214  03:47:05  -7.29          -15.406196    32              -0.0001
iter: 215  03:47:07  -7.09          -15.406196    32              -0.0001
iter: 216  03:47:08  -7.28          -15.406196    32              -0.0001
iter: 217  03:47:10  -7.09          -15.406196    32              -0.0001
iter: 218  03:47:12  -7.28          -15.406196    32              -0.0001
iter: 219  03:47:13  -7.09          -15.406196    32              -0.0001
iter: 220  03:47:15  -7.28          -15.406196    32              -0.0001
iter: 221  03:47:16  -7.09          -15.406196    32              -0.0001
iter: 222  03:47:18  -7.27          -15.406196    32              -0.0001
iter: 223  03:47:19  -7.09          -15.406196    32              -0.0001
iter: 224  03:47:21  -7.27          -15.406196    32              -0.0001
iter: 225  03:47:23  -7.09          -15.406196    32              -0.0001
iter: 226  03:47:24  -7.27          -15.406196    32              -0.0001
iter: 227  03:47:26  -7.09          -15.406196    32              -0.0001
iter: 228  03:47:27  -7.27          -15.406196    32              -0.0001
iter: 229  03:47:29  -7.09          -15.406196    32              -0.0001
iter: 230  03:47:31  -7.27          -15.406196    32              -0.0001
iter: 231  03:47:32  -7.08          -15.406196    32              -0.0001
iter: 232  03:47:34  -7.26          -15.406196    32              -0.0001
iter: 233  03:47:35  -7.08          -15.406196    32              -0.0001
iter: 234  03:47:37  -7.26          -15.406196    32              -0.0001
iter: 235  03:47:38  -7.08          -15.406196    32              -0.0001
iter: 236  03:47:40  -7.26          -15.406196    32              -0.0001
iter: 237  03:47:42  -7.08          -15.406196    32              -0.0001
iter: 238  03:47:43  -7.26          -15.406196    32              -0.0001
iter: 239  03:47:45  -7.09          -15.406196    32              -0.0001
iter: 240  03:47:46  -7.26          -15.406196    32              -0.0001
iter: 241  03:47:48  -7.09          -15.406196    32              -0.0001
iter: 242  03:47:50  -7.26          -15.406196    32              -0.0001
iter: 243  03:47:51  -7.09          -15.406196    32              -0.0001
iter: 244  03:47:53  -7.26          -15.406196    32              -0.0001
iter: 245  03:47:54  -7.09          -15.406196    32              -0.0001
iter: 246  03:47:56  -7.26          -15.406196    32              -0.0001
iter: 247  03:47:58  -7.09          -15.406196    32              -0.0001
iter: 248  03:47:59  -7.26          -15.406196    32              -0.0001
iter: 249  03:48:01  -7.10          -15.406196    32              -0.0001
iter: 250  03:48:02  -7.26          -15.406196    32              -0.0001
iter: 251  03:48:04  -7.10          -15.406196    32              -0.0001
iter: 252  03:48:06  -7.26          -15.406196    32              -0.0001
iter: 253  03:48:07  -7.10          -15.406196    32              -0.0001
iter: 254  03:48:09  -7.27          -15.406196    32              -0.0001
iter: 255  03:48:10  -7.11          -15.406196    32              -0.0001
iter: 256  03:48:12  -7.27          -15.406196    32              -0.0001
iter: 257  03:48:13  -7.11          -15.406196    32              -0.0001
iter: 258  03:48:15  -7.27          -15.406196    32              -0.0001
iter: 259  03:48:17  -7.11          -15.406196    32              -0.0001
iter: 260  03:48:18  -7.27          -15.406196    32              -0.0001
iter: 261  03:48:20  -7.11          -15.406196    32              -0.0001
iter: 262  03:48:21  -7.27          -15.406196    32              -0.0001
iter: 263  03:48:23  -7.12          -15.406196    32              -0.0001
iter: 264  03:48:25  -7.27          -15.406196    32              -0.0001
iter: 265  03:48:26  -7.12          -15.406196    32              -0.0001
iter: 266  03:48:28  -7.27          -15.406196    32              -0.0001
iter: 267  03:48:29  -7.12          -15.406196    32              -0.0001
iter: 268  03:48:31  -7.27          -15.406196    32              -0.0001
iter: 269  03:48:32  -7.12          -15.406196    32              -0.0001
iter: 270  03:48:34  -7.27          -15.406196    32              -0.0001
iter: 271  03:48:36  -7.12          -15.406196    32              -0.0001
iter: 272  03:48:37  -7.27          -15.406196    32              -0.0001
iter: 273  03:48:39  -7.12          -15.406196    32              -0.0001
iter: 274  03:48:40  -7.28          -15.406196    32              -0.0001
iter: 275  03:48:42  -7.12          -15.406196    32              -0.0001
iter: 276  03:48:44  -7.28          -15.406196    32              -0.0001
iter: 277  03:48:45  -7.12          -15.406196    32              -0.0001
iter: 278  03:48:47  -7.28          -15.406196    32              -0.0001
iter: 279  03:48:48  -7.12          -15.406196    32              -0.0001
iter: 280  03:48:50  -7.28          -15.406196    32              -0.0001
iter: 281  03:48:52  -7.12          -15.406196    32              -0.0001
iter: 282  03:48:53  -7.28          -15.406196    32              -0.0001
iter: 283  03:48:55  -7.12          -15.406196    32              -0.0001
iter: 284  03:48:56  -7.28          -15.406196    32              -0.0001
iter: 285  03:48:58  -7.11          -15.406196    32              -0.0001
iter: 286  03:49:00  -7.28          -15.406196    32              -0.0001
iter: 287  03:49:01  -7.11          -15.406196    32              -0.0001
iter: 288  03:49:03  -7.28          -15.406196    32              -0.0001
iter: 289  03:49:04  -7.11          -15.406196    32              -0.0001
iter: 290  03:49:06  -7.27          -15.406196    32              -0.0001
iter: 291  03:49:07  -7.10          -15.406196    32              -0.0001
iter: 292  03:49:09  -7.27          -15.406196    32              -0.0001
iter: 293  03:49:11  -7.09          -15.406196    32              -0.0001
iter: 294  03:49:12  -7.27          -15.406196    32              -0.0001
iter: 295  03:49:14  -7.08          -15.406196    32              -0.0001
iter: 296  03:49:15  -7.27          -15.406196    32              -0.0001
iter: 297  03:49:17  -7.07          -15.406196    32              -0.0001
iter: 298  03:49:19  -7.26          -15.406196    32              -0.0001
iter: 299  03:49:20  -7.05          -15.406196    32              -0.0001
iter: 300  03:49:22  -7.26          -15.406196    32              -0.0001
iter: 301  03:49:23  -7.02          -15.406196    32              -0.0001
iter: 302  03:49:25  -7.26          -15.406196    32              -0.0001
iter: 303  03:49:26  -6.99          -15.406196    32              -0.0001
iter: 304  03:49:28  -6.38          -15.406196    32              -0.0001
iter: 305  03:49:30  -7.03          -15.406196    32              -0.0001
iter: 306  03:49:31  -6.05          -15.406196    32              -0.0001
iter: 307  03:49:33  -7.18          -15.406196    32              -0.0001
iter: 308  03:49:34  -5.95          -15.406196    32              -0.0001
iter: 309  03:49:36  -6.61          -15.406196    32              -0.0001
iter: 310  03:49:38  -5.37          -15.406196    32              -0.0001
iter: 311  03:49:39  -5.39          -15.406196    32              -0.0001
iter: 312  03:49:41  -6.89          -15.406196    32              -0.0001
iter: 313  03:49:42  -5.27          -15.406196    32              -0.0001
iter: 314  03:49:44  -5.38          -15.406196    32              -0.0001
iter: 315  03:49:46  -7.03          -15.406196    32              -0.0001
iter: 316  03:49:47  -7.50          -15.406196    32              -0.0001

Converged after 316 iterations.

Dipole moment: (-3.212793, 1.854907, 0.000000) |e|*Ang

Total magnetic moment: -0.000098
Local magnetic moments:
   0 Hf 0.000041
   1 Hf 0.000041

Energy contributions relative to reference atoms: (reference = -819772.230551)

Kinetic:        +14.592190
Potential:      -14.395168
External:        +0.000000
XC:             -14.628559
Entropy (-ST):   -0.004597
Local:           -0.972361
--------------------------
Free energy:    -15.408495
Extrapolated:   -15.406196

Spin contamination: 0.000171 electrons
Fixed Fermi level: 9.99711

Warning: Showing only first 2 kpts
                      Up                     Down
 Kpt  Band  Eigenvalues  Occupancy  Eigenvalues  Occupancy
  0    10     10.61029    0.00102     10.61019    0.00103
  0    11     11.16648    0.00000     11.16647    0.00000
  0    12     11.16712    0.00000     11.16711    0.00000
  0    13     11.45721    0.00000     11.45723    0.00000

  1    10     10.55770    0.00855     10.55760    0.00858
  1    11     11.02195    0.00000     11.02194    0.00000
  1    12     11.20330    0.00000     11.20329    0.00000
  1    13     11.57791    0.00000     11.57793    0.00000


Timing:                              incl.     excl.
-----------------------------------------------------------
Hamiltonian:                         1.296     0.002   0.0% |
 Atomic:                             0.967     0.003   0.0% |
  XC Correction:                     0.964     0.964   0.1% |
 Calculate atomic Hamiltonians:      0.030     0.030   0.0% |
 Communicate:                        0.000     0.000   0.0% |
 Initialize Hamiltonian:             0.000     0.000   0.0% |
 Poisson:                            0.000     0.000   0.0% |
 XC 3D grid:                         0.296     0.296   0.0% |
LCAO initialization:                 9.474     0.217   0.0% |
 LCAO eigensolver:                   2.771     0.019   0.0% |
  Calculate projections:             0.014     0.014   0.0% |
  DenseAtomicCorrection:             0.053     0.053   0.0% |
  Distribute overlap matrix:         0.008     0.008   0.0% |
  Orbital Layouts:                   0.307     0.307   0.0% |
  Potential matrix:                  1.296     1.296   0.2% |
  Sum over cells:                    1.074     1.074   0.1% |
 LCAO to grid:                       5.150     5.150   0.7% |
 Set positions (LCAO WFS):           1.337     0.002   0.0% |
  Basic WFS set positions:           0.001     0.001   0.0% |
  Basis functions set positions:     0.000     0.000   0.0% |
  TCI: Calculate S, T, P:            1.333     1.333   0.2% |
PWDescriptor:                        0.040     0.040   0.0% |
Redistribute:                        0.000     0.000   0.0% |
SCF-cycle:                         749.391   112.595  14.7% |-----|
 CG:                               198.622   184.783  24.2% |---------|
  CG: orthonormalize:               13.839     7.219   0.9% |
   CG: overlap:                      4.185     4.185   0.5% |
   CG: overlap2:                     2.435     2.435   0.3% |
 Davidson:                          67.236    29.964   3.9% |-|
  calc. matrices:                   23.615    23.615   3.1% ||
  diagonalize:                      12.147    12.147   1.6% ||
  rotate_psi:                        1.510     1.510   0.2% |
 Density:                            9.197     0.001   0.0% |
  Atomic density matrices:           0.087     0.087   0.0% |
  Mix:                               0.429     0.429   0.1% |
  Multipole moments:                 0.003     0.003   0.0% |
  Pseudo density:                    8.677     8.514   1.1% |
   Symmetrize density:               0.163     0.163   0.0% |
 Hamiltonian:                       13.470     0.018   0.0% |
  Atomic:                           10.597     0.030   0.0% |
   XC Correction:                   10.568    10.568   1.4% ||
  Calculate atomic Hamiltonians:     0.285     0.285   0.0% |
  Communicate:                       0.000     0.000   0.0% |
  Poisson:                           0.009     0.009   0.0% |
  XC 3D grid:                        2.560     2.560   0.3% |
 Orthonormalize:                     0.517     0.016   0.0% |
  Band Layouts:                      0.020     0.004   0.0% |
   Inverse Cholesky:                 0.017     0.017   0.0% |
  calc_s_matrix:                     0.071     0.071   0.0% |
  projections:                       0.354     0.354   0.0% |
  rotate_psi:                        0.056     0.056   0.0% |
 Residuals:                         73.014    73.014   9.6% |---|
 Subspace diag:                    274.741     4.927   0.6% |
  Band Layouts:                     20.503     1.329   0.2% |
   Diagonalize:                     18.199    18.199   2.4% ||
   Distribute results:               0.975     0.975   0.1% |
  calc_h_matrix:                   235.249   235.249  30.8% |-----------|
  rotate_psi:                       14.062    14.062   1.8% ||
Set symmetry:                        0.023     0.023   0.0% |
Other:                               3.801     3.801   0.5% |
-----------------------------------------------------------
Total:                                       764.026 100.0%

Date: Fri Feb 12 03:49:49 2021
element =  Hf
struct =  hcp
kpts =  (8,8,4)
element =  Hf
configuration =  [Xe] 5d2 6s2 6p0
valence =  ['5d', '6s', '6p']
occupations =  {'5d': 2, '6s': 2, '6p': 0}
nls =  5d
rNum =  600
lmax =  f
*******************************************
Starting confinement parameter optimization
Adjustable parameters and initial values:
  Hf_5d.r0 : 6.614041
  Hf_6p.r0 : 6.614041
  Hf_6s.r0 : 6.614041
  Hf_n.r0 : 9.921062
*******************************************

OPT_VAL: 6.614041440429249   6.614041440429249   6.614041440429249   9.921062160643874
VCONF:
  Hf_5d : PowerConfinement(r0=6.614041, s=2.000000)
  Hf_6p : PowerConfinement(r0=6.614041, s=2.000000)
  Hf_6s : PowerConfinement(r0=6.614041, s=2.000000)
  Hf_n : PowerConfinement(r0=9.921062, s=2.000000)
RESIDUAL: 0.0

OPT_VAL: 6.814041440429249   6.614041440429249   6.614041440429249   9.921062160643874
VCONF:
  Hf_5d : PowerConfinement(r0=6.814041, s=2.000000)
  Hf_6p : PowerConfinement(r0=6.614041, s=2.000000)
  Hf_6s : PowerConfinement(r0=6.614041, s=2.000000)
  Hf_n : PowerConfinement(r0=9.921062, s=2.000000)
RESIDUAL: 0.0

OPT_VAL: 6.614041440429249   6.814041440429249   6.614041440429249   9.921062160643874
VCONF:
  Hf_5d : PowerConfinement(r0=6.614041, s=2.000000)
  Hf_6p : PowerConfinement(r0=6.814041, s=2.000000)
  Hf_6s : PowerConfinement(r0=6.614041, s=2.000000)
  Hf_n : PowerConfinement(r0=9.921062, s=2.000000)
RESIDUAL: 0.0

OPT_VAL: 6.614041440429249   6.614041440429249   6.814041440429249   9.921062160643874
VCONF:
  Hf_5d : PowerConfinement(r0=6.614041, s=2.000000)
  Hf_6p : PowerConfinement(r0=6.614041, s=2.000000)
  Hf_6s : PowerConfinement(r0=6.814041, s=2.000000)
  Hf_n : PowerConfinement(r0=9.921062, s=2.000000)
RESIDUAL: 0.0

OPT_VAL: 6.614041440429249   6.614041440429249   6.614041440429249   10.121062160643874
VCONF:
  Hf_5d : PowerConfinement(r0=6.614041, s=2.000000)
  Hf_6p : PowerConfinement(r0=6.614041, s=2.000000)
  Hf_6s : PowerConfinement(r0=6.614041, s=2.000000)
  Hf_n : PowerConfinement(r0=10.121062, s=2.000000)
RESIDUAL: 0.0

OPT_VAL: 6.639041440429249   6.614041440429249   6.614041440429249   9.921062160643874
VCONF:
  Hf_5d : PowerConfinement(r0=6.639041, s=2.000000)
  Hf_6p : PowerConfinement(r0=6.614041, s=2.000000)
  Hf_6s : PowerConfinement(r0=6.614041, s=2.000000)
  Hf_n : PowerConfinement(r0=9.921062, s=2.000000)
RESIDUAL: 0.0

OPT_VAL: 6.614041440429249   6.639041440429249   6.614041440429249   9.921062160643874
VCONF:
  Hf_5d : PowerConfinement(r0=6.614041, s=2.000000)
  Hf_6p : PowerConfinement(r0=6.639041, s=2.000000)
  Hf_6s : PowerConfinement(r0=6.614041, s=2.000000)
  Hf_n : PowerConfinement(r0=9.921062, s=2.000000)
RESIDUAL: 0.0

OPT_VAL: 6.614041440429249   6.614041440429249   6.639041440429249   9.921062160643874
VCONF:
  Hf_5d : PowerConfinement(r0=6.614041, s=2.000000)
  Hf_6p : PowerConfinement(r0=6.614041, s=2.000000)
  Hf_6s : PowerConfinement(r0=6.639041, s=2.000000)
  Hf_n : PowerConfinement(r0=9.921062, s=2.000000)
RESIDUAL: 0.0

OPT_VAL: 6.614041440429249   6.614041440429249   6.614041440429249   9.946062160643875
VCONF:
  Hf_5d : PowerConfinement(r0=6.614041, s=2.000000)
  Hf_6p : PowerConfinement(r0=6.614041, s=2.000000)
  Hf_6s : PowerConfinement(r0=6.614041, s=2.000000)
  Hf_n : PowerConfinement(r0=9.946062, s=2.000000)
RESIDUAL: 0.0

OPT_VAL: 6.619041440429249   6.614041440429249   6.614041440429249   9.921062160643874
VCONF:
  Hf_5d : PowerConfinement(r0=6.619041, s=2.000000)
  Hf_6p : PowerConfinement(r0=6.614041, s=2.000000)
  Hf_6s : PowerConfinement(r0=6.614041, s=2.000000)
  Hf_n : PowerConfinement(r0=9.921062, s=2.000000)
RESIDUAL: 0.0

OPT_VAL: 6.614041440429249   6.619041440429249   6.614041440429249   9.921062160643874
VCONF:
  Hf_5d : PowerConfinement(r0=6.614041, s=2.000000)
  Hf_6p : PowerConfinement(r0=6.619041, s=2.000000)
  Hf_6s : PowerConfinement(r0=6.614041, s=2.000000)
  Hf_n : PowerConfinement(r0=9.921062, s=2.000000)
RESIDUAL: 0.0

OPT_VAL: 6.614041440429249   6.614041440429249   6.619041440429249   9.921062160643874
VCONF:
  Hf_5d : PowerConfinement(r0=6.614041, s=2.000000)
  Hf_6p : PowerConfinement(r0=6.614041, s=2.000000)
  Hf_6s : PowerConfinement(r0=6.619041, s=2.000000)
  Hf_n : PowerConfinement(r0=9.921062, s=2.000000)
RESIDUAL: 0.0

OPT_VAL: 6.614041440429249   6.614041440429249   6.614041440429249   9.926062160643875
VCONF:
  Hf_5d : PowerConfinement(r0=6.614041, s=2.000000)
  Hf_6p : PowerConfinement(r0=6.614041, s=2.000000)
  Hf_6s : PowerConfinement(r0=6.614041, s=2.000000)
  Hf_n : PowerConfinement(r0=9.926062, s=2.000000)
RESIDUAL: 0.0

*******************************************
Optimization finished after 13 iterations
Adjustable parameters and final values:
  Hf_5d.r0 : 6.614041
  Hf_6p.r0 : 6.614041
  Hf_6s.r0 : 6.614041
  Hf_n.r0 : 9.921062
*******************************************

VCONF:
  Hf_5d : PowerConfinement(r0=6.614041, s=2.000000)
  Hf_6p : PowerConfinement(r0=6.614041, s=2.000000)
  Hf_6s : PowerConfinement(r0=6.614041, s=2.000000)
  Hf_n : PowerConfinement(r0=9.921062, s=2.000000)
