
     Program PWSCF v.6.0 (svn rev. 13079) starts on 25Feb2021 at 20: 5:23 

     This program is part of the open-source Quantum ESPRESSO suite
     for quantum simulation of materials; please cite
         "P. Giannozzi et al., J. Phys.:Condens. Matter 21 395502 (2009);
          URL http://www.quantum-espresso.org", 
     in publications or presentations arising from this work. More details at
     http://www.quantum-espresso.org/quote

     Parallel version (MPI), running on     1 processors
     Reading input from espresso.pwi
Warning: card &IONS ignored
Warning: card / ignored
Warning: card &CELL ignored
Warning: card / ignored

     Current dimensions of program PWSCF are:
     Max number of different atomic species (ntypx) = 10
     Max number of k-points (npk) =  40000
     Max angular momentum in pseudopotentials (lmaxx) =  3
     Message from routine input:
     WARNING: "startingwfc" set to atomic+random may spoil restart

     Atomic positions and unit cell read from directory:
     ./pwscf.save/


     IMPORTANT: XC functional enforced from input :
     Exchange-correlation      = PBE ( 1  4  3  4 0 0)
     Any further DFT definition will be discarded
     Please, verify this is what you really want


     Subspace diagonalization in iterative solution of the eigenvalue problem:
     a serial algorithm will be used


     G-vector sticks info
     --------------------
     sticks:   dense  smooth     PW     G-vecs:    dense   smooth      PW
     Sum         421     313    109                 5577     3839     725



     bravais-lattice index     =            0
     lattice parameter (alat)  =       5.4585  a.u.
     unit-cell volume          =     115.0040 (a.u.)^3
     number of atoms/cell      =            1
     number of atomic types    =            1
     number of electrons       =        19.00
     number of Kohn-Sham states=           14
     kinetic-energy cutoff     =      40.0000  Ry
     charge density cutoff     =     200.0000  Ry
     Exchange-correlation      = PBE ( 1  4  3  4 0 0)

     celldm(1)=   5.458533  celldm(2)=   0.000000  celldm(3)=   0.000000
     celldm(4)=   0.000000  celldm(5)=   0.000000  celldm(6)=   0.000000

     crystal axes: (cart. coord. in units of alat)
               a(1) = (   0.000000   0.707107   0.707107 )  
               a(2) = (   0.707107   0.000000   0.707107 )  
               a(3) = (   0.707107   0.707107   0.000000 )  

     reciprocal axes: (cart. coord. in units 2 pi/alat)
               b(1) = ( -0.707107  0.707107  0.707107 )  
               b(2) = (  0.707107 -0.707107  0.707107 )  
               b(3) = (  0.707107  0.707107 -0.707107 )  


     PseudoPot. # 1 for Ag read from file:
     /home/inukai/tango/tests/1element/qe_fit_v2_Ag/../pseudo/ag_pbe_v1.4.uspp.F.UPF
     MD5 check sum: d66d668201baa78d5eb5b04ef7011058
     Pseudo is Ultrasoft + core correction, Zval = 19.0
     Generated by new atomic code, or converted to UPF format
     Using radial grid of  887 points,  6 beta functions with: 
                l(1) =   0
                l(2) =   0
                l(3) =   1
                l(4) =   1
                l(5) =   2
                l(6) =   2
     Q(r) pseudized with  6 coefficients,  rinner =    1.300   1.300   1.300
                                                       1.300   1.300

     atomic species   valence    mass     pseudopotential
        Ag            19.00   107.86820     Ag( 1.00)

     48 Sym. Ops., with inversion, found


                                    s                        frac. trans.

      isym =  1     identity                                     

 cryst.   s( 1) = (     1          0          0      )
                  (     0          1          0      )
                  (     0          0          1      )

 cart.    s( 1) = (  1.0000000  0.0000000  0.0000000 )
                  (  0.0000000  1.0000000  0.0000000 )
                  (  0.0000000  0.0000000  1.0000000 )


      isym =  2     180 deg rotation - cart. axis [0,0,1]        

 cryst.   s( 2) = (     0          1         -1      )
                  (     1          0         -1      )
                  (     0          0         -1      )

 cart.    s( 2) = ( -1.0000000  0.0000000  0.0000000 )
                  (  0.0000000 -1.0000000  0.0000000 )
                  (  0.0000000  0.0000000  1.0000000 )


      isym =  3     180 deg rotation - cart. axis [0,1,0]        

 cryst.   s( 3) = (     0         -1          1      )
                  (     0         -1          0      )
                  (     1         -1          0      )

 cart.    s( 3) = ( -1.0000000  0.0000000  0.0000000 )
                  (  0.0000000  1.0000000  0.0000000 )
                  (  0.0000000  0.0000000 -1.0000000 )


      isym =  4     180 deg rotation - cart. axis [1,0,0]        

 cryst.   s( 4) = (    -1          0          0      )
                  (    -1          0          1      )
                  (    -1          1          0      )

 cart.    s( 4) = (  1.0000000  0.0000000  0.0000000 )
                  (  0.0000000 -1.0000000  0.0000000 )
                  (  0.0000000  0.0000000 -1.0000000 )


      isym =  5     180 deg rotation - cart. axis [1,1,0]        

 cryst.   s( 5) = (    -1          0          1      )
                  (     0         -1          1      )
                  (     0          0          1      )

 cart.    s( 5) = (  0.0000000  1.0000000  0.0000000 )
                  (  1.0000000  0.0000000  0.0000000 )
                  (  0.0000000  0.0000000 -1.0000000 )


      isym =  6     180 deg rotation - cart. axis [1,-1,0]       

 cryst.   s( 6) = (     0         -1          0      )
                  (    -1          0          0      )
                  (     0          0         -1      )

 cart.    s( 6) = (  0.0000000 -1.0000000  0.0000000 )
                  ( -1.0000000  0.0000000  0.0000000 )
                  (  0.0000000  0.0000000 -1.0000000 )


      isym =  7      90 deg rotation - cart. axis [0,0,-1]       

 cryst.   s( 7) = (     0          1          0      )
                  (     0          1         -1      )
                  (    -1          1          0      )

 cart.    s( 7) = (  0.0000000  1.0000000  0.0000000 )
                  ( -1.0000000  0.0000000  0.0000000 )
                  (  0.0000000  0.0000000  1.0000000 )


      isym =  8      90 deg rotation - cart. axis [0,0,1]        

 cryst.   s( 8) = (     1          0         -1      )
                  (     1          0          0      )
                  (     1         -1          0      )

 cart.    s( 8) = (  0.0000000 -1.0000000  0.0000000 )
                  (  1.0000000  0.0000000  0.0000000 )
                  (  0.0000000  0.0000000  1.0000000 )


      isym =  9     180 deg rotation - cart. axis [1,0,1]        

 cryst.   s( 9) = (    -1          1          0      )
                  (     0          1          0      )
                  (     0          1         -1      )

 cart.    s( 9) = (  0.0000000  0.0000000  1.0000000 )
                  (  0.0000000 -1.0000000  0.0000000 )
                  (  1.0000000  0.0000000  0.0000000 )


      isym = 10     180 deg rotation - cart. axis [-1,0,1]       

 cryst.   s(10) = (     0          0         -1      )
                  (     0         -1          0      )
                  (    -1          0          0      )

 cart.    s(10) = (  0.0000000  0.0000000 -1.0000000 )
                  (  0.0000000 -1.0000000  0.0000000 )
                  ( -1.0000000  0.0000000  0.0000000 )


      isym = 11      90 deg rotation - cart. axis [0,1,0]        

 cryst.   s(11) = (     0          0          1      )
                  (    -1          0          1      )
                  (     0         -1          1      )

 cart.    s(11) = (  0.0000000  0.0000000  1.0000000 )
                  (  0.0000000  1.0000000  0.0000000 )
                  ( -1.0000000  0.0000000  0.0000000 )


      isym = 12      90 deg rotation - cart. axis [0,-1,0]       

 cryst.   s(12) = (     1         -1          0      )
                  (     1          0         -1      )
                  (     1          0          0      )

 cart.    s(12) = (  0.0000000  0.0000000 -1.0000000 )
                  (  0.0000000  1.0000000  0.0000000 )
                  (  1.0000000  0.0000000  0.0000000 )


      isym = 13     180 deg rotation - cart. axis [0,1,1]        

 cryst.   s(13) = (     1          0          0      )
                  (     1         -1          0      )
                  (     1          0         -1      )

 cart.    s(13) = ( -1.0000000  0.0000000  0.0000000 )
                  (  0.0000000  0.0000000  1.0000000 )
                  (  0.0000000  1.0000000  0.0000000 )


      isym = 14     180 deg rotation - cart. axis [0,1,-1]       

 cryst.   s(14) = (    -1          0          0      )
                  (     0          0         -1      )
                  (     0         -1          0      )

 cart.    s(14) = ( -1.0000000  0.0000000  0.0000000 )
                  (  0.0000000  0.0000000 -1.0000000 )
                  (  0.0000000 -1.0000000  0.0000000 )


      isym = 15      90 deg rotation - cart. axis [-1,0,0]       

 cryst.   s(15) = (     0         -1          1      )
                  (     0          0          1      )
                  (    -1          0          1      )

 cart.    s(15) = (  1.0000000  0.0000000  0.0000000 )
                  (  0.0000000  0.0000000  1.0000000 )
                  (  0.0000000 -1.0000000  0.0000000 )


      isym = 16      90 deg rotation - cart. axis [1,0,0]        

 cryst.   s(16) = (     0          1         -1      )
                  (    -1          1          0      )
                  (     0          1          0      )

 cart.    s(16) = (  1.0000000  0.0000000  0.0000000 )
                  (  0.0000000  0.0000000 -1.0000000 )
                  (  0.0000000  1.0000000  0.0000000 )


      isym = 17     120 deg rotation - cart. axis [-1,-1,-1]     

 cryst.   s(17) = (     0          0          1      )
                  (     1          0          0      )
                  (     0          1          0      )

 cart.    s(17) = (  0.0000000  1.0000000  0.0000000 )
                  (  0.0000000  0.0000000  1.0000000 )
                  (  1.0000000  0.0000000  0.0000000 )


      isym = 18     120 deg rotation - cart. axis [-1,1,1]       

 cryst.   s(18) = (     1         -1          0      )
                  (     0         -1          1      )
                  (     0         -1          0      )

 cart.    s(18) = (  0.0000000 -1.0000000  0.0000000 )
                  (  0.0000000  0.0000000  1.0000000 )
                  ( -1.0000000  0.0000000  0.0000000 )


      isym = 19     120 deg rotation - cart. axis [1,1,-1]       

 cryst.   s(19) = (    -1          1          0      )
                  (    -1          0          0      )
                  (    -1          0          1      )

 cart.    s(19) = (  0.0000000  1.0000000  0.0000000 )
                  (  0.0000000  0.0000000 -1.0000000 )
                  ( -1.0000000  0.0000000  0.0000000 )


      isym = 20     120 deg rotation - cart. axis [1,-1,1]       

 cryst.   s(20) = (     0          0         -1      )
                  (     0          1         -1      )
                  (     1          0         -1      )

 cart.    s(20) = (  0.0000000 -1.0000000  0.0000000 )
                  (  0.0000000  0.0000000 -1.0000000 )
                  (  1.0000000  0.0000000  0.0000000 )


      isym = 21     120 deg rotation - cart. axis [1,1,1]        

 cryst.   s(21) = (     0          1          0      )
                  (     0          0          1      )
                  (     1          0          0      )

 cart.    s(21) = (  0.0000000  0.0000000  1.0000000 )
                  (  1.0000000  0.0000000  0.0000000 )
                  (  0.0000000  1.0000000  0.0000000 )


      isym = 22     120 deg rotation - cart. axis [-1,1,-1]      

 cryst.   s(22) = (    -1          0          1      )
                  (    -1          1          0      )
                  (    -1          0          0      )

 cart.    s(22) = (  0.0000000  0.0000000  1.0000000 )
                  ( -1.0000000  0.0000000  0.0000000 )
                  (  0.0000000 -1.0000000  0.0000000 )


      isym = 23     120 deg rotation - cart. axis [1,-1,-1]      

 cryst.   s(23) = (     1          0         -1      )
                  (     0          0         -1      )
                  (     0          1         -1      )

 cart.    s(23) = (  0.0000000  0.0000000 -1.0000000 )
                  ( -1.0000000  0.0000000  0.0000000 )
                  (  0.0000000  1.0000000  0.0000000 )


      isym = 24     120 deg rotation - cart. axis [-1,-1,1]      

 cryst.   s(24) = (     0         -1          0      )
                  (     1         -1          0      )
                  (     0         -1          1      )

 cart.    s(24) = (  0.0000000  0.0000000 -1.0000000 )
                  (  1.0000000  0.0000000  0.0000000 )
                  (  0.0000000 -1.0000000  0.0000000 )


      isym = 25     inversion                                    

 cryst.   s(25) = (    -1          0          0      )
                  (     0         -1          0      )
                  (     0          0         -1      )

 cart.    s(25) = ( -1.0000000  0.0000000  0.0000000 )
                  (  0.0000000 -1.0000000  0.0000000 )
                  (  0.0000000  0.0000000 -1.0000000 )


      isym = 26     inv. 180 deg rotation - cart. axis [0,0,1]   

 cryst.   s(26) = (     0         -1          1      )
                  (    -1          0          1      )
                  (     0          0          1      )

 cart.    s(26) = (  1.0000000  0.0000000  0.0000000 )
                  (  0.0000000  1.0000000  0.0000000 )
                  (  0.0000000  0.0000000 -1.0000000 )


      isym = 27     inv. 180 deg rotation - cart. axis [0,1,0]   

 cryst.   s(27) = (     0          1         -1      )
                  (     0          1          0      )
                  (    -1          1          0      )

 cart.    s(27) = (  1.0000000  0.0000000  0.0000000 )
                  (  0.0000000 -1.0000000  0.0000000 )
                  (  0.0000000  0.0000000  1.0000000 )


      isym = 28     inv. 180 deg rotation - cart. axis [1,0,0]   

 cryst.   s(28) = (     1          0          0      )
                  (     1          0         -1      )
                  (     1         -1          0      )

 cart.    s(28) = ( -1.0000000  0.0000000  0.0000000 )
                  (  0.0000000  1.0000000  0.0000000 )
                  (  0.0000000  0.0000000  1.0000000 )


      isym = 29     inv. 180 deg rotation - cart. axis [1,1,0]   

 cryst.   s(29) = (     1          0         -1      )
                  (     0          1         -1      )
                  (     0          0         -1      )

 cart.    s(29) = (  0.0000000 -1.0000000  0.0000000 )
                  ( -1.0000000  0.0000000  0.0000000 )
                  (  0.0000000  0.0000000  1.0000000 )


      isym = 30     inv. 180 deg rotation - cart. axis [1,-1,0]  

 cryst.   s(30) = (     0          1          0      )
                  (     1          0          0      )
                  (     0          0          1      )

 cart.    s(30) = (  0.0000000  1.0000000  0.0000000 )
                  (  1.0000000  0.0000000  0.0000000 )
                  (  0.0000000  0.0000000  1.0000000 )


      isym = 31     inv.  90 deg rotation - cart. axis [0,0,-1]  

 cryst.   s(31) = (     0         -1          0      )
                  (     0         -1          1      )
                  (     1         -1          0      )

 cart.    s(31) = (  0.0000000 -1.0000000  0.0000000 )
                  (  1.0000000  0.0000000  0.0000000 )
                  (  0.0000000  0.0000000 -1.0000000 )


      isym = 32     inv.  90 deg rotation - cart. axis [0,0,1]   

 cryst.   s(32) = (    -1          0          1      )
                  (    -1          0          0      )
                  (    -1          1          0      )

 cart.    s(32) = (  0.0000000  1.0000000  0.0000000 )
                  ( -1.0000000  0.0000000  0.0000000 )
                  (  0.0000000  0.0000000 -1.0000000 )


      isym = 33     inv. 180 deg rotation - cart. axis [1,0,1]   

 cryst.   s(33) = (     1         -1          0      )
                  (     0         -1          0      )
                  (     0         -1          1      )

 cart.    s(33) = (  0.0000000  0.0000000 -1.0000000 )
                  (  0.0000000  1.0000000  0.0000000 )
                  ( -1.0000000  0.0000000  0.0000000 )


      isym = 34     inv. 180 deg rotation - cart. axis [-1,0,1]  

 cryst.   s(34) = (     0          0          1      )
                  (     0          1          0      )
                  (     1          0          0      )

 cart.    s(34) = (  0.0000000  0.0000000  1.0000000 )
                  (  0.0000000  1.0000000  0.0000000 )
                  (  1.0000000  0.0000000  0.0000000 )


      isym = 35     inv.  90 deg rotation - cart. axis [0,1,0]   

 cryst.   s(35) = (     0          0         -1      )
                  (     1          0         -1      )
                  (     0          1         -1      )

 cart.    s(35) = (  0.0000000  0.0000000 -1.0000000 )
                  (  0.0000000 -1.0000000  0.0000000 )
                  (  1.0000000  0.0000000  0.0000000 )


      isym = 36     inv.  90 deg rotation - cart. axis [0,-1,0]  

 cryst.   s(36) = (    -1          1          0      )
                  (    -1          0          1      )
                  (    -1          0          0      )

 cart.    s(36) = (  0.0000000  0.0000000  1.0000000 )
                  (  0.0000000 -1.0000000  0.0000000 )
                  ( -1.0000000  0.0000000  0.0000000 )


      isym = 37     inv. 180 deg rotation - cart. axis [0,1,1]   

 cryst.   s(37) = (    -1          0          0      )
                  (    -1          1          0      )
                  (    -1          0          1      )

 cart.    s(37) = (  1.0000000  0.0000000  0.0000000 )
                  (  0.0000000  0.0000000 -1.0000000 )
                  (  0.0000000 -1.0000000  0.0000000 )


      isym = 38     inv. 180 deg rotation - cart. axis [0,1,-1]  

 cryst.   s(38) = (     1          0          0      )
                  (     0          0          1      )
                  (     0          1          0      )

 cart.    s(38) = (  1.0000000  0.0000000  0.0000000 )
                  (  0.0000000  0.0000000  1.0000000 )
                  (  0.0000000  1.0000000  0.0000000 )


      isym = 39     inv.  90 deg rotation - cart. axis [-1,0,0]  

 cryst.   s(39) = (     0          1         -1      )
                  (     0          0         -1      )
                  (     1          0         -1      )

 cart.    s(39) = ( -1.0000000  0.0000000  0.0000000 )
                  (  0.0000000  0.0000000 -1.0000000 )
                  (  0.0000000  1.0000000  0.0000000 )


      isym = 40     inv.  90 deg rotation - cart. axis [1,0,0]   

 cryst.   s(40) = (     0         -1          1      )
                  (     1         -1          0      )
                  (     0         -1          0      )

 cart.    s(40) = ( -1.0000000  0.0000000  0.0000000 )
                  (  0.0000000  0.0000000  1.0000000 )
                  (  0.0000000 -1.0000000  0.0000000 )


      isym = 41     inv. 120 deg rotation - cart. axis [-1,-1,-1]

 cryst.   s(41) = (     0          0         -1      )
                  (    -1          0          0      )
                  (     0         -1          0      )

 cart.    s(41) = (  0.0000000 -1.0000000  0.0000000 )
                  (  0.0000000  0.0000000 -1.0000000 )
                  ( -1.0000000  0.0000000  0.0000000 )


      isym = 42     inv. 120 deg rotation - cart. axis [-1,1,1]  

 cryst.   s(42) = (    -1          1          0      )
                  (     0          1         -1      )
                  (     0          1          0      )

 cart.    s(42) = (  0.0000000  1.0000000  0.0000000 )
                  (  0.0000000  0.0000000 -1.0000000 )
                  (  1.0000000  0.0000000  0.0000000 )


      isym = 43     inv. 120 deg rotation - cart. axis [1,1,-1]  

 cryst.   s(43) = (     1         -1          0      )
                  (     1          0          0      )
                  (     1          0         -1      )

 cart.    s(43) = (  0.0000000 -1.0000000  0.0000000 )
                  (  0.0000000  0.0000000  1.0000000 )
                  (  1.0000000  0.0000000  0.0000000 )


      isym = 44     inv. 120 deg rotation - cart. axis [1,-1,1]  

 cryst.   s(44) = (     0          0          1      )
                  (     0         -1          1      )
                  (    -1          0          1      )

 cart.    s(44) = (  0.0000000  1.0000000  0.0000000 )
                  (  0.0000000  0.0000000  1.0000000 )
                  ( -1.0000000  0.0000000  0.0000000 )


      isym = 45     inv. 120 deg rotation - cart. axis [1,1,1]   

 cryst.   s(45) = (     0         -1          0      )
                  (     0          0         -1      )
                  (    -1          0          0      )

 cart.    s(45) = (  0.0000000  0.0000000 -1.0000000 )
                  ( -1.0000000  0.0000000  0.0000000 )
                  (  0.0000000 -1.0000000  0.0000000 )


      isym = 46     inv. 120 deg rotation - cart. axis [-1,1,-1] 

 cryst.   s(46) = (     1          0         -1      )
                  (     1         -1          0      )
                  (     1          0          0      )

 cart.    s(46) = (  0.0000000  0.0000000 -1.0000000 )
                  (  1.0000000  0.0000000  0.0000000 )
                  (  0.0000000  1.0000000  0.0000000 )


      isym = 47     inv. 120 deg rotation - cart. axis [1,-1,-1] 

 cryst.   s(47) = (    -1          0          1      )
                  (     0          0          1      )
                  (     0         -1          1      )

 cart.    s(47) = (  0.0000000  0.0000000  1.0000000 )
                  (  1.0000000  0.0000000  0.0000000 )
                  (  0.0000000 -1.0000000  0.0000000 )


      isym = 48     inv. 120 deg rotation - cart. axis [-1,-1,1] 

 cryst.   s(48) = (     0          1          0      )
                  (    -1          1          0      )
                  (     0          1         -1      )

 cart.    s(48) = (  0.0000000  0.0000000  1.0000000 )
                  ( -1.0000000  0.0000000  0.0000000 )
                  (  0.0000000  1.0000000  0.0000000 )


   Cartesian axes

     site n.     atom                  positions (alat units)
         1           Ag  tau(   1) = (   0.0000000   0.0000000   0.0000000  )

   Crystallographic axes

     site n.     atom                  positions (cryst. coord.)
         1           Ag  tau(   1) = (  0.0000000  0.0000000  0.0000000  )

     number of k points=    50  gaussian smearing, width (Ry)=  0.0010
                       cart. coord. in units 2pi/alat
        k(    1) = (   0.3535534   0.7071068   0.0000000), wk =   0.0400000
        k(    2) = (   0.3535534   0.6678231   0.0392837), wk =   0.0400000
        k(    3) = (   0.3535534   0.6285394   0.0785674), wk =   0.0400000
        k(    4) = (   0.3535534   0.5892557   0.1178511), wk =   0.0400000
        k(    5) = (   0.3535534   0.5499719   0.1571348), wk =   0.0400000
        k(    6) = (   0.3535534   0.5106882   0.1964186), wk =   0.0400000
        k(    7) = (   0.3535534   0.4714045   0.2357023), wk =   0.0400000
        k(    8) = (   0.3535534   0.4321208   0.2749860), wk =   0.0400000
        k(    9) = (   0.3535534   0.3928371   0.3142697), wk =   0.0400000
        k(   10) = (   0.3535534   0.3535534   0.3535534), wk =   0.0400000
        k(   11) = (   0.3240906   0.3240906   0.3240906), wk =   0.0400000
        k(   12) = (   0.2946278   0.2946278   0.2946278), wk =   0.0400000
        k(   13) = (   0.2651650   0.2651650   0.2651650), wk =   0.0400000
        k(   14) = (   0.2357023   0.2357023   0.2357023), wk =   0.0400000
        k(   15) = (   0.2062395   0.2062395   0.2062395), wk =   0.0400000
        k(   16) = (   0.1767767   0.1767767   0.1767767), wk =   0.0400000
        k(   17) = (   0.1473139   0.1473139   0.1473139), wk =   0.0400000
        k(   18) = (   0.1178511   0.1178511   0.1178511), wk =   0.0400000
        k(   19) = (   0.0883883   0.0883883   0.0883883), wk =   0.0400000
        k(   20) = (   0.0589256   0.0589256   0.0589256), wk =   0.0400000
        k(   21) = (   0.0294628   0.0294628   0.0294628), wk =   0.0400000
        k(   22) = (   0.0000000   0.0000000   0.0000000), wk =   0.0400000
        k(   23) = (   0.0000000   0.0471405   0.0000000), wk =   0.0400000
        k(   24) = (   0.0000000   0.0942809   0.0000000), wk =   0.0400000
        k(   25) = (   0.0000000   0.1414214   0.0000000), wk =   0.0400000
        k(   26) = (   0.0000000   0.1885618   0.0000000), wk =   0.0400000
        k(   27) = (   0.0000000   0.2357023   0.0000000), wk =   0.0400000
        k(   28) = (   0.0000000   0.2828427   0.0000000), wk =   0.0400000
        k(   29) = (   0.0000000   0.3299832   0.0000000), wk =   0.0400000
        k(   30) = (   0.0000000   0.3771236   0.0000000), wk =   0.0400000
        k(   31) = (   0.0000000   0.4242641   0.0000000), wk =   0.0400000
        k(   32) = (   0.0000000   0.4714045   0.0000000), wk =   0.0400000
        k(   33) = (   0.0000000   0.5185450   0.0000000), wk =   0.0400000
        k(   34) = (   0.0000000   0.5656854   0.0000000), wk =   0.0400000
        k(   35) = (   0.0000000   0.6128259   0.0000000), wk =   0.0400000
        k(   36) = (   0.0000000   0.6599663   0.0000000), wk =   0.0400000
        k(   37) = (   0.0000000   0.7071068   0.0000000), wk =   0.0400000
        k(   38) = (   0.0505076   0.7071068   0.0000000), wk =   0.0400000
        k(   39) = (   0.1010153   0.7071068   0.0000000), wk =   0.0400000
        k(   40) = (   0.1515229   0.7071068   0.0000000), wk =   0.0400000
        k(   41) = (   0.2020305   0.7071068   0.0000000), wk =   0.0400000
        k(   42) = (   0.2525381   0.7071068  -0.0000000), wk =   0.0400000
        k(   43) = (   0.3030458   0.7071068   0.0000000), wk =   0.0400000
        k(   44) = (   0.3535534   0.7071068   0.0000000), wk =   0.0400000
        k(   45) = (   0.3830162   0.6776440   0.0000000), wk =   0.0400000
        k(   46) = (   0.4124790   0.6481812   0.0000000), wk =   0.0400000
        k(   47) = (   0.4419417   0.6187184   0.0000000), wk =   0.0400000
        k(   48) = (   0.4714045   0.5892557   0.0000000), wk =   0.0400000
        k(   49) = (   0.5008673   0.5597929   0.0000000), wk =   0.0400000
        k(   50) = (   0.5303301   0.5303301   0.0000000), wk =   0.0400000

                       cryst. coord.
        k(    1) = (   0.5000000   0.2500000   0.7500000), wk =   0.0400000
        k(    2) = (   0.5000000   0.2777778   0.7222222), wk =   0.0400000
        k(    3) = (   0.5000000   0.3055556   0.6944444), wk =   0.0400000
        k(    4) = (   0.5000000   0.3333333   0.6666667), wk =   0.0400000
        k(    5) = (   0.5000000   0.3611111   0.6388889), wk =   0.0400000
        k(    6) = (   0.5000000   0.3888889   0.6111111), wk =   0.0400000
        k(    7) = (   0.5000000   0.4166667   0.5833333), wk =   0.0400000
        k(    8) = (   0.5000000   0.4444444   0.5555556), wk =   0.0400000
        k(    9) = (   0.5000000   0.4722222   0.5277778), wk =   0.0400000
        k(   10) = (   0.5000000   0.5000000   0.5000000), wk =   0.0400000
        k(   11) = (   0.4583333   0.4583333   0.4583333), wk =   0.0400000
        k(   12) = (   0.4166667   0.4166667   0.4166667), wk =   0.0400000
        k(   13) = (   0.3750000   0.3750000   0.3750000), wk =   0.0400000
        k(   14) = (   0.3333333   0.3333333   0.3333333), wk =   0.0400000
        k(   15) = (   0.2916667   0.2916667   0.2916667), wk =   0.0400000
        k(   16) = (   0.2500000   0.2500000   0.2500000), wk =   0.0400000
        k(   17) = (   0.2083333   0.2083333   0.2083333), wk =   0.0400000
        k(   18) = (   0.1666667   0.1666667   0.1666667), wk =   0.0400000
        k(   19) = (   0.1250000   0.1250000   0.1250000), wk =   0.0400000
        k(   20) = (   0.0833333   0.0833333   0.0833333), wk =   0.0400000
        k(   21) = (   0.0416667   0.0416667   0.0416667), wk =   0.0400000
        k(   22) = (   0.0000000   0.0000000   0.0000000), wk =   0.0400000
        k(   23) = (   0.0333333   0.0000000   0.0333333), wk =   0.0400000
        k(   24) = (   0.0666667   0.0000000   0.0666667), wk =   0.0400000
        k(   25) = (   0.1000000   0.0000000   0.1000000), wk =   0.0400000
        k(   26) = (   0.1333333   0.0000000   0.1333333), wk =   0.0400000
        k(   27) = (   0.1666667   0.0000000   0.1666667), wk =   0.0400000
        k(   28) = (   0.2000000   0.0000000   0.2000000), wk =   0.0400000
        k(   29) = (   0.2333333   0.0000000   0.2333333), wk =   0.0400000
        k(   30) = (   0.2666667   0.0000000   0.2666667), wk =   0.0400000
        k(   31) = (   0.3000000   0.0000000   0.3000000), wk =   0.0400000
        k(   32) = (   0.3333333   0.0000000   0.3333333), wk =   0.0400000
        k(   33) = (   0.3666667   0.0000000   0.3666667), wk =   0.0400000
        k(   34) = (   0.4000000   0.0000000   0.4000000), wk =   0.0400000
        k(   35) = (   0.4333333   0.0000000   0.4333333), wk =   0.0400000
        k(   36) = (   0.4666667   0.0000000   0.4666667), wk =   0.0400000
        k(   37) = (   0.5000000   0.0000000   0.5000000), wk =   0.0400000
        k(   38) = (   0.5000000   0.0357143   0.5357143), wk =   0.0400000
        k(   39) = (   0.5000000   0.0714286   0.5714286), wk =   0.0400000
        k(   40) = (   0.5000000   0.1071429   0.6071429), wk =   0.0400000
        k(   41) = (   0.5000000   0.1428571   0.6428571), wk =   0.0400000
        k(   42) = (   0.5000000   0.1785714   0.6785714), wk =   0.0400000
        k(   43) = (   0.5000000   0.2142857   0.7142857), wk =   0.0400000
        k(   44) = (   0.5000000   0.2500000   0.7500000), wk =   0.0400000
        k(   45) = (   0.4791667   0.2708333   0.7500000), wk =   0.0400000
        k(   46) = (   0.4583333   0.2916667   0.7500000), wk =   0.0400000
        k(   47) = (   0.4375000   0.3125000   0.7500000), wk =   0.0400000
        k(   48) = (   0.4166667   0.3333333   0.7500000), wk =   0.0400000
        k(   49) = (   0.3958333   0.3541667   0.7500000), wk =   0.0400000
        k(   50) = (   0.3750000   0.3750000   0.7500000), wk =   0.0400000

     Dense  grid:     5577 G-vectors     FFT dimensions: (  25,  25,  25)

     Smooth grid:     3839 G-vectors     FFT dimensions: (  24,  24,  24)

     Estimated max dynamical RAM per process >       8.15Mb

     The potential is recalculated from file :
     ./pwscf.save/charge-density.dat

     Starting wfc are   13 randomized atomic wfcs +    1 random wfc

     Band Structure Calculation
     Davidson diagonalization with overlap

     Computing kpt #:     1
     total cpu time spent up to now is        0.7 secs

     Computing kpt #:     2
     total cpu time spent up to now is        0.9 secs

     Computing kpt #:     3
     total cpu time spent up to now is        1.1 secs

     Computing kpt #:     4
     total cpu time spent up to now is        1.2 secs

     Computing kpt #:     5
     total cpu time spent up to now is        1.4 secs

     Computing kpt #:     6
     total cpu time spent up to now is        1.5 secs

     Computing kpt #:     7
     total cpu time spent up to now is        1.7 secs

     Computing kpt #:     8
     total cpu time spent up to now is        1.8 secs

     Computing kpt #:     9
     total cpu time spent up to now is        2.0 secs

     Computing kpt #:    10
     total cpu time spent up to now is        2.1 secs

     Computing kpt #:    11
     total cpu time spent up to now is        2.3 secs

     Computing kpt #:    12
     total cpu time spent up to now is        2.4 secs

     Computing kpt #:    13
     total cpu time spent up to now is        2.6 secs

     Computing kpt #:    14
     total cpu time spent up to now is        2.8 secs

     Computing kpt #:    15
     total cpu time spent up to now is        2.9 secs

     Computing kpt #:    16
     total cpu time spent up to now is        3.1 secs

     Computing kpt #:    17
     total cpu time spent up to now is        3.3 secs

     Computing kpt #:    18
     total cpu time spent up to now is        3.4 secs

     Computing kpt #:    19
     total cpu time spent up to now is        3.6 secs

     Computing kpt #:    20
     total cpu time spent up to now is        3.8 secs

     Computing kpt #:    21
     total cpu time spent up to now is        3.9 secs

     Computing kpt #:    22
     total cpu time spent up to now is        4.1 secs

     Computing kpt #:    23
     total cpu time spent up to now is        4.3 secs

     Computing kpt #:    24
     total cpu time spent up to now is        4.4 secs

     Computing kpt #:    25
     total cpu time spent up to now is        4.6 secs

     Computing kpt #:    26
     total cpu time spent up to now is        4.8 secs

     Computing kpt #:    27
     total cpu time spent up to now is        4.9 secs

     Computing kpt #:    28
     total cpu time spent up to now is        5.1 secs

     Computing kpt #:    29
     total cpu time spent up to now is        5.2 secs

     Computing kpt #:    30
     total cpu time spent up to now is        5.4 secs

     Computing kpt #:    31
     total cpu time spent up to now is        5.5 secs

     Computing kpt #:    32
     total cpu time spent up to now is        5.7 secs

     Computing kpt #:    33
     total cpu time spent up to now is        5.9 secs

     Computing kpt #:    34
     total cpu time spent up to now is        6.0 secs

     Computing kpt #:    35
     total cpu time spent up to now is        6.2 secs

     Computing kpt #:    36
     total cpu time spent up to now is        6.3 secs

     Computing kpt #:    37
     total cpu time spent up to now is        6.5 secs

     Computing kpt #:    38
     total cpu time spent up to now is        6.6 secs

     Computing kpt #:    39
     total cpu time spent up to now is        6.8 secs

     Computing kpt #:    40
     total cpu time spent up to now is        6.9 secs

     Computing kpt #:    41
     total cpu time spent up to now is        7.1 secs

     Computing kpt #:    42
     total cpu time spent up to now is        7.3 secs

     Computing kpt #:    43
     total cpu time spent up to now is        7.4 secs

     Computing kpt #:    44
     total cpu time spent up to now is        7.6 secs

     Computing kpt #:    45
     total cpu time spent up to now is        7.8 secs

     Computing kpt #:    46
     total cpu time spent up to now is        7.9 secs

     Computing kpt #:    47
     total cpu time spent up to now is        8.1 secs

     Computing kpt #:    48
     total cpu time spent up to now is        8.2 secs

     Computing kpt #:    49
     total cpu time spent up to now is        8.4 secs

     Computing kpt #:    50
     total cpu time spent up to now is        8.5 secs

     ethr =  5.26E-10,  avg # of iterations = 10.7

     total cpu time spent up to now is        8.5 secs

     End of band structure calculation

          k = 0.3536 0.7071 0.0000 (   488 PWs)   bands (ev):

   -74.5734 -38.0931 -38.0931 -38.0480  11.7125  12.3295  12.3295  13.6549
    14.6586  23.3615  23.3615  24.4194  25.5942  40.3779

          k = 0.3536 0.6678 0.0393 (   492 PWs)   bands (ev):

   -74.5736 -38.0961 -38.0910 -38.0456  11.7393  12.2862  12.3640  13.6535
    14.6137  22.8799  22.8987  25.0941  26.0974  39.6637

          k = 0.3536 0.6285 0.0786 (   486 PWs)   bands (ev):

   -74.5741 -38.1031 -38.0834 -38.0395  11.8163  12.1659  12.4685  13.6268
    14.5074  22.0151  22.2668  26.2706  27.1014  38.5581

          k = 0.3536 0.5893 0.1179 (   490 PWs)   bands (ev):

   -74.5749 -38.1121 -38.0724 -38.0327  11.9336  11.9894  12.6435  13.5232
    14.4101  21.0655  21.7981  27.6269  28.2453  37.4870

          k = 0.3536 0.5500 0.1571 (   482 PWs)   bands (ev):

   -74.5758 -38.1209 -38.0583 -38.0257  11.7785  12.0765  12.8899  13.3280
    14.3724  20.1334  21.4732  29.0987  29.4346  36.5265

          k = 0.3536 0.5107 0.1964 (   482 PWs)   bands (ev):

   -74.5768 -38.1295 -38.0436 -38.0198  11.5536  12.2272  13.0938  13.2030
    14.3801  19.2486  21.2615  30.6133  30.6400  35.7290

          k = 0.3536 0.4714 0.2357 (   490 PWs)   bands (ev):

   -74.5777 -38.1366 -38.0305 -38.0153  11.3385  12.3675  12.8792  13.5701
    14.4038  18.4340  21.1312  31.6953  32.1987  35.1712

          k = 0.3536 0.4321 0.2750 (   484 PWs)   bands (ev):

   -74.5785 -38.1421 -38.0187 -38.0116  11.1597  12.4823  12.7164  13.9599
    14.4271  17.7243  21.0563  32.5003  33.6892  34.9918

          k = 0.3536 0.3928 0.3143 (   486 PWs)   bands (ev):

   -74.5790 -38.1456 -38.0114 -38.0095  11.0413  12.5573  12.6168  14.2999
    14.4428  17.1923  21.0183  32.8501  34.9184  35.2384

          k = 0.3536 0.3536 0.3536 (   476 PWs)   bands (ev):

   -74.5792 -38.1464 -38.0085 -38.0085  10.9999  12.5835  12.5835  14.4485
    14.4485  16.9803  21.0068  32.9132  35.4501  35.4501

          k = 0.3241 0.3241 0.3241 (   489 PWs)   bands (ev):

   -74.5795 -38.1442 -38.0084 -38.0084  11.0107  12.5932  12.5932  14.4206
    14.4206  16.6135  21.4631  32.9630  35.5236  35.5236

          k = 0.2946 0.2946 0.2946 (   489 PWs)   bands (ev):

   -74.5803 -38.1361 -38.0072 -38.0072  11.0410  12.6216  12.6216  14.3413
    14.3413  15.8117  22.5348  33.1092  35.7351  35.7351

          k = 0.2652 0.2652 0.2652 (   492 PWs)   bands (ev):

   -74.5817 -38.1237 -38.0052 -38.0052  11.0820  12.6653  12.6653  14.2197
    14.2197  14.9133  23.8857  33.3418  36.0566  36.0566

          k = 0.2357 0.2357 0.2357 (   492 PWs)   bands (ev):

   -74.5835 -38.1068 -38.0026 -38.0026  11.1157  12.7180  12.7180  14.0652
    14.0711  14.0711  25.3778  33.6402  36.4391  36.4391

          k = 0.2062 0.2062 0.2062 (   492 PWs)   bands (ev):

   -74.5856 -38.0871 -37.9997 -37.9997  11.1056  12.7702  12.7702  13.3480
    13.9146  13.9146  26.9514  33.9684  36.8140  36.8140

          k = 0.1768 0.1768 0.1768 (   492 PWs)   bands (ev):

   -74.5879 -38.0657 -37.9966 -37.9966  10.9921  12.8077  12.8077  12.8378
    13.7732  13.7732  28.5699  34.2706  37.1096  37.1096

          k = 0.1473 0.1473 0.1473 (   489 PWs)   bands (ev):

   -74.5901 -38.0444 -37.9933 -37.9933  10.7370  12.5763  12.8145  12.8145
    13.6711  13.6711  30.1966  34.4840  37.2856  37.2856

          k = 0.1179 0.1179 0.1179 (   507 PWs)   bands (ev):

   -74.5922 -38.0253 -37.9910 -37.9910  10.3997  12.5021  12.7824  12.7824
    13.6205  13.6205  31.7734  34.5968  37.3508  37.3508

          k = 0.0884 0.0884 0.0884 (   513 PWs)   bands (ev):

   -74.5940 -38.0084 -37.9887 -37.9887  10.0743  12.5172  12.7246  12.7246
    13.6127  13.6127  33.1105  34.7934  37.3442  37.3442

          k = 0.0589 0.0589 0.0589 (   516 PWs)   bands (ev):

   -74.5954 -37.9954 -37.9868 -37.9868   9.8179  12.5581  12.6643  12.6643
    13.6258  13.6258  33.6960  35.6031  37.3073  37.3073

          k = 0.0295 0.0295 0.0295 (   531 PWs)   bands (ev):

   -74.5963 -37.9883 -37.9859 -37.9859   9.6567  12.5923  12.6209  12.6209
    13.6404  13.6404  33.7570  36.7136  37.2721  37.2721

          k = 0.0000 0.0000 0.0000 (   531 PWs)   bands (ev):

   -74.5966 -37.9855 -37.9855 -37.9855   9.6019  12.6053  12.6053  12.6053
    13.6466  13.6466  33.7487  37.2581  37.2581  37.2581

          k = 0.0000 0.0471 0.0000 (   531 PWs)   bands (ev):

   -74.5963 -37.9872 -37.9862 -37.9862   9.6487  12.5867  12.6224  12.6224
    13.6278  13.6545  33.7601  37.0371  37.1259  37.1259

          k = 0.0000 0.0943 0.0000 (   523 PWs)   bands (ev):

   -74.5956 -37.9916 -37.9881 -37.9881   9.7877  12.5321  12.6735  12.6735
    13.5744  13.6781  33.7931  36.5178  36.7354  36.7354

          k = 0.0000 0.1414 0.0000 (   515 PWs)   bands (ev):

   -74.5943 -37.9995 -37.9912 -37.9912  10.0136  12.4448  12.7578  12.7578
    13.4926  13.7164  33.8448  35.9068  36.1164  36.1164

          k = 0.0000 0.1886 0.0000 (   504 PWs)   bands (ev):

   -74.5927 -38.0105 -37.9950 -37.9950  10.3155  12.3299  12.8735  12.8735
    13.3975  13.7684  33.9106  35.3081  35.3276  35.3276

          k = 0.0000 0.2357 0.0000 (   504 PWs)   bands (ev):

   -74.5908 -38.0239 -38.0003 -38.0003  10.6706  12.1936  13.0183  13.0183
    13.3166  13.8313  33.9857  34.4370  34.4370  34.7477

          k = 0.0000 0.2828 0.0000 (   496 PWs)   bands (ev):

   -74.5886 -38.0383 -38.0062 -38.0062  11.0322  12.0433  13.1893  13.1893
    13.3023  13.9030  33.5025  33.5025  34.0654  34.1918

          k = 0.0000 0.3300 0.0000 (   496 PWs)   bands (ev):

   -74.5862 -38.0543 -38.0126 -38.0126  11.3173  11.8863  13.3815  13.3815
    13.4430  13.9806  32.5682  32.5682  33.5162  34.1455

          k = 0.0000 0.3771 0.0000 (   496 PWs)   bands (ev):

   -74.5838 -38.0710 -38.0190 -38.0190  11.4473  11.7298  13.5896  13.5896
    13.8222  14.0609  31.6667  31.6667  32.5132  34.2227

          k = 0.0000 0.4243 0.0000 (   488 PWs)   bands (ev):

   -74.5814 -38.0868 -38.0250 -38.0250  11.4341  11.5805  13.8057  13.8057
    14.1406  14.4324  30.8244  30.8244  31.1684  34.2945

          k = 0.0000 0.4714 0.0000 (   480 PWs)   bands (ev):

   -74.5792 -38.1008 -38.0310 -38.0310  11.3442  11.4440  14.0205  14.0205
    14.2156  15.2066  29.6775  30.0635  30.0635  34.3583

          k = 0.0000 0.5185 0.0000 (   484 PWs)   bands (ev):

   -74.5773 -38.1140 -38.0364 -38.0364  11.2293  11.3253  14.2225  14.2225
    14.2826  16.0848  28.1806  29.4043  29.4043  34.4126

          k = 0.0000 0.5657 0.0000 (   488 PWs)   bands (ev):

   -74.5757 -38.1250 -38.0408 -38.0408  11.1193  11.2289  14.3386  14.3992
    14.3992  17.0158  26.7577  28.8661  28.8661  34.4563

          k = 0.0000 0.6128 0.0000 (   480 PWs)   bands (ev):

   -74.5744 -38.1325 -38.0439 -38.0439  11.0315  11.1578  14.3808  14.5381
    14.5381  17.9282  25.4909  28.4663  28.4663  34.4882

          k = 0.0000 0.6600 0.0000 (   472 PWs)   bands (ev):

   -74.5737 -38.1373 -38.0456 -38.0456  10.9755  11.1145  14.4071  14.6270
    14.6270  18.6776  24.5277  28.2199  28.2199  34.5079

          k = 0.0000 0.7071 0.0000 (   468 PWs)   bands (ev):

   -74.5734 -38.1388 -38.0461 -38.0461  10.9562  11.0998  14.4160  14.6577
    14.6577  18.9924  24.1414  28.1366  28.1366  34.5145

          k = 0.0505 0.7071 0.0000 (   474 PWs)   bands (ev):

   -74.5734 -38.1378 -38.0474 -38.0466  10.9851  11.1253  14.3873  14.5532
    14.6577  19.1407  24.1473  27.9584  27.9599  34.7056

          k = 0.1010 0.7071 0.0000 (   482 PWs)   bands (ev):

   -74.5735 -38.1345 -38.0512 -38.0471  11.0690  11.2020  14.2777  14.3036
    14.6577  19.5476  24.1658  27.4806  27.5156  35.2307

          k = 0.1515 0.7071 0.0000 (   484 PWs)   bands (ev):

   -74.5735 -38.1292 -38.0567 -38.0473  11.1997  11.3299  13.9043  14.1729
    14.6579  20.1380  24.1997  26.7999  26.9724  35.9961

          k = 0.2020 0.7071 0.0000 (   488 PWs)   bands (ev):

   -74.5735 -38.1219 -38.0644 -38.0475  11.3613  11.5080  13.4932  14.0101
    14.6581  20.8494  24.2513  26.0017  26.4466  36.9269

          k = 0.2525 0.7071-0.0000 (   490 PWs)   bands (ev):

   -74.5735 -38.1132 -38.0733 -38.0479  11.5281  11.7353  13.0811  13.8414
    14.6583  21.6406  24.3190  25.1414  26.0077  37.9806

          k = 0.3030 0.7071 0.0000 (   492 PWs)   bands (ev):

   -74.5735 -38.1035 -38.0828 -38.0484  11.6606  12.0102  12.6888  13.7072
    14.6586  22.4847  24.2533  24.3874  25.7056  39.1352

          k = 0.3536 0.7071 0.0000 (   488 PWs)   bands (ev):

   -74.5734 -38.0931 -38.0931 -38.0480  11.7125  12.3295  12.3295  13.6549
    14.6586  23.3615  23.3615  24.4194  25.5942  40.3779

          k = 0.3830 0.6776 0.0000 (   488 PWs)   bands (ev):

   -74.5735 -38.0989 -38.0877 -38.0472  11.7001  12.1391  12.5344  13.6721
    14.6453  22.8772  23.4881  24.5882  25.8806  39.4143

          k = 0.4125 0.6482 0.0000 (   491 PWs)   bands (ev):

   -74.5736 -38.1038 -38.0841 -38.0449  11.6548  11.9858  12.7465  13.7146
    14.6055  22.4650  23.2664  24.6532  26.7383  38.2136

          k = 0.4419 0.6187 0.0000 (   491 PWs)   bands (ev):

   -74.5737 -38.1078 -38.0821 -38.0413  11.5728  11.8924  12.9536  13.7688
    14.5432  22.1334  23.0259  24.6208  27.8101  36.9457

          k = 0.4714 0.5893 0.0000 (   487 PWs)   bands (ev):

   -74.5738 -38.1106 -38.0811 -38.0377  11.4821  11.8466  13.1385  13.8200
    14.4683  21.8900  22.8328  24.5824  28.8944  35.7250

          k = 0.5009 0.5598 0.0000 (   485 PWs)   bands (ev):

   -74.5739 -38.1124 -38.0808 -38.0351  11.4167  11.8254  13.2739  13.8563
    14.4015  21.7411  22.7096  24.5572  29.8215  34.7139

          k = 0.5303 0.5303 0.0000 (   492 PWs)   bands (ev):

   -74.5739 -38.1131 -38.0808 -38.0347  11.3931  11.8190  13.3254  13.8692
    14.3731  21.6910  22.6674  24.5486  30.2363  34.2704

     Writing output data file pwscf.save

     init_run     :      0.52s CPU      0.43s WALL (       1 calls)
     electrons    :     16.00s CPU      7.94s WALL (       1 calls)

     Called by init_run:
     wfcinit      :      0.00s CPU      0.00s WALL (       1 calls)
     wfcinit:atom :      0.00s CPU      0.02s WALL (      50 calls)
     wfcinit:wfcr :      1.52s CPU      0.79s WALL (      50 calls)
     potinit      :      0.02s CPU      0.02s WALL (       1 calls)

     Called by electrons:
     c_bands      :     15.98s CPU      7.93s WALL (       1 calls)
     v_of_rho     :      0.02s CPU      0.01s WALL (       1 calls)
     v_h          :      0.00s CPU      0.00s WALL (       1 calls)
     v_xc         :      0.02s CPU      0.01s WALL (       1 calls)
     newd         :      0.03s CPU      0.03s WALL (       1 calls)

     Called by c_bands:
     init_us_2    :      0.03s CPU      0.02s WALL (      50 calls)
     cegterg      :     14.23s CPU      7.01s WALL (      50 calls)

     Called by sum_band:

     Called by *egterg:
     h_psi        :     11.36s CPU      5.65s WALL (     635 calls)
     s_psi        :      0.17s CPU      0.07s WALL (     635 calls)
     g_psi        :      0.05s CPU      0.03s WALL (     535 calls)
     cdiaghg      :      2.89s CPU      1.42s WALL (     585 calls)
     cegterg:over :      0.86s CPU      0.22s WALL (     535 calls)
     cegterg:upda :      0.28s CPU      0.19s WALL (     535 calls)
     cegterg:last :      0.09s CPU      0.09s WALL (     104 calls)

     Called by h_psi:
     h_psi:pot    :     11.31s CPU      5.62s WALL (     635 calls)
     h_psi:calbec :      0.08s CPU      0.09s WALL (     635 calls)
     vloc_psi     :     11.08s CPU      5.44s WALL (     635 calls)
     add_vuspsi   :      0.14s CPU      0.08s WALL (     635 calls)

     General routines
     calbec       :      0.08s CPU      0.08s WALL (     635 calls)
     fft          :      0.00s CPU      0.00s WALL (      13 calls)
     ffts         :      0.00s CPU      0.01s WALL (       1 calls)
     fftw         :     10.31s CPU      5.01s WALL (   10650 calls)
     interpolate  :      0.00s CPU      0.01s WALL (       1 calls)
     davcio       :      0.00s CPU      0.00s WALL (      50 calls)

     Parallel routines
     fft_scatter  :      0.86s CPU      0.24s WALL (   10664 calls)

     PWSCF        :    16.94s CPU         8.81s WALL


   This run was terminated on:  20: 5:32  25Feb2021            

=------------------------------------------------------------------------------=
   JOB DONE.
=------------------------------------------------------------------------------=
