
     Program PWSCF v.6.0 (svn rev. 13079) starts on 25Feb2021 at 16:45:32 

     This program is part of the open-source Quantum ESPRESSO suite
     for quantum simulation of materials; please cite
         "P. Giannozzi et al., J. Phys.:Condens. Matter 21 395502 (2009);
          URL http://www.quantum-espresso.org", 
     in publications or presentations arising from this work. More details at
     http://www.quantum-espresso.org/quote

     Parallel version (MPI), running on     1 processors
     Reading input from espresso.pwi
Warning: card &IONS ignored
Warning: card / ignored
Warning: card &CELL ignored
Warning: card / ignored

     Current dimensions of program PWSCF are:
     Max number of different atomic species (ntypx) = 10
     Max number of k-points (npk) =  40000
     Max angular momentum in pseudopotentials (lmaxx) =  3
     Message from routine input:
     WARNING: "startingwfc" set to atomic+random may spoil restart

     Atomic positions and unit cell read from directory:
     ./pwscf.save/


     IMPORTANT: XC functional enforced from input :
     Exchange-correlation      = PBE ( 1  4  3  4 0 0)
     Any further DFT definition will be discarded
     Please, verify this is what you really want


     Subspace diagonalization in iterative solution of the eigenvalue problem:
     a serial algorithm will be used


     G-vector sticks info
     --------------------
     sticks:   dense  smooth     PW     G-vecs:    dense   smooth      PW
     Sum         649     517    163                21277    15247    2489



     bravais-lattice index     =            0
     lattice parameter (alat)  =       6.8918  a.u.
     unit-cell volume          =     445.4810 (a.u.)^3
     number of atoms/cell      =            2
     number of atomic types    =            1
     number of electrons       =        22.00
     number of Kohn-Sham states=           15
     kinetic-energy cutoff     =      40.0000  Ry
     charge density cutoff     =     200.0000  Ry
     Exchange-correlation      = PBE ( 1  4  3  4 0 0)

     celldm(1)=   6.891831  celldm(2)=   0.000000  celldm(3)=   0.000000
     celldm(4)=   0.000000  celldm(5)=   0.000000  celldm(6)=   0.000000

     crystal axes: (cart. coord. in units of alat)
               a(1) = (   1.000000   0.000000   0.000000 )  
               a(2) = (  -0.500000   0.866025   0.000000 )  
               a(3) = (   0.000000   0.000000   1.571429 )  

     reciprocal axes: (cart. coord. in units 2 pi/alat)
               b(1) = (  1.000000  0.577350 -0.000000 )  
               b(2) = (  0.000000  1.154701  0.000000 )  
               b(3) = (  0.000000 -0.000000  0.636364 )  


     PseudoPot. # 1 for Y  read from file:
     /home/inukai/tango/tests/1element/qe_fit_v2_Y/../pseudo/y_pbe_v1.4.uspp.F.UPF
     MD5 check sum: d034151ed7554c50b6e82763ed42c788
     Pseudo is Ultrasoft + core correction, Zval = 11.0
     Generated by new atomic code, or converted to UPF format
     Using radial grid of  885 points,  6 beta functions with: 
                l(1) =   0
                l(2) =   0
                l(3) =   1
                l(4) =   1
                l(5) =   2
                l(6) =   2
     Q(r) pseudized with  8 coefficients,  rinner =    1.200   1.200   1.200
                                                       1.200   1.200

     atomic species   valence    mass     pseudopotential
        Y             11.00    88.90584     Y ( 1.00)

     12 Sym. Ops. (no inversion) found
          (note: 12 additional sym.ops. were found but ignored
           their fractional translations are incommensurate with FFT grid)

                                    s                        frac. trans.

      isym =  1     identity                                     

 cryst.   s( 1) = (     1          0          0      )
                  (     0          1          0      )
                  (     0          0          1      )

 cart.    s( 1) = (  1.0000000  0.0000000  0.0000000 )
                  (  0.0000000  1.0000000  0.0000000 )
                  (  0.0000000  0.0000000  1.0000000 )


      isym =  2     180 deg rotation - cart. axis [0,1,0]        

 cryst.   s( 2) = (    -1          0          0      )
                  (     1          1          0      )
                  (     0          0         -1      )

 cart.    s( 2) = ( -1.0000000  0.0000000  0.0000000 )
                  (  0.0000000  1.0000000  0.0000000 )
                  (  0.0000000  0.0000000 -1.0000000 )


      isym =  3     120 deg rotation - cryst. axis [0,0,1]       

 cryst.   s( 3) = (     0          1          0      )
                  (    -1         -1          0      )
                  (     0          0          1      )

 cart.    s( 3) = ( -0.5000000 -0.8660254  0.0000000 )
                  (  0.8660254 -0.5000000  0.0000000 )
                  (  0.0000000  0.0000000  1.0000000 )


      isym =  4     120 deg rotation - cryst. axis [0,0,-1]      

 cryst.   s( 4) = (    -1         -1          0      )
                  (     1          0          0      )
                  (     0          0          1      )

 cart.    s( 4) = ( -0.5000000  0.8660254  0.0000000 )
                  ( -0.8660254 -0.5000000  0.0000000 )
                  (  0.0000000  0.0000000  1.0000000 )


      isym =  5     180 deg rotation - cryst. axis [1,-1,0]      

 cryst.   s( 5) = (     0         -1          0      )
                  (    -1          0          0      )
                  (     0          0         -1      )

 cart.    s( 5) = (  0.5000000 -0.8660254  0.0000000 )
                  ( -0.8660254 -0.5000000  0.0000000 )
                  (  0.0000000  0.0000000 -1.0000000 )


      isym =  6     180 deg rotation - cryst. axis [2,1,0]       

 cryst.   s( 6) = (     1          1          0      )
                  (     0         -1          0      )
                  (     0          0         -1      )

 cart.    s( 6) = (  0.5000000  0.8660254  0.0000000 )
                  (  0.8660254 -0.5000000  0.0000000 )
                  (  0.0000000  0.0000000 -1.0000000 )


      isym =  7     inv. 180 deg rotation - cart. axis [0,0,1]   

 cryst.   s( 7) = (     1          0          0      )
                  (     0          1          0      )
                  (     0          0         -1      )

 cart.    s( 7) = (  1.0000000  0.0000000  0.0000000 )
                  (  0.0000000  1.0000000  0.0000000 )
                  (  0.0000000  0.0000000 -1.0000000 )


      isym =  8     inv. 180 deg rotation - cart. axis [1,0,0]   

 cryst.   s( 8) = (    -1          0          0      )
                  (     1          1          0      )
                  (     0          0          1      )

 cart.    s( 8) = ( -1.0000000  0.0000000  0.0000000 )
                  (  0.0000000  1.0000000  0.0000000 )
                  (  0.0000000  0.0000000  1.0000000 )


      isym =  9     inv.  60 deg rotation - cryst. axis [0,0,1]  

 cryst.   s( 9) = (    -1         -1          0      )
                  (     1          0          0      )
                  (     0          0         -1      )

 cart.    s( 9) = ( -0.5000000  0.8660254  0.0000000 )
                  ( -0.8660254 -0.5000000  0.0000000 )
                  (  0.0000000  0.0000000 -1.0000000 )


      isym = 10     inv.  60 deg rotation - cryst. axis [0,0,-1] 

 cryst.   s(10) = (     0          1          0      )
                  (    -1         -1          0      )
                  (     0          0         -1      )

 cart.    s(10) = ( -0.5000000 -0.8660254  0.0000000 )
                  (  0.8660254 -0.5000000  0.0000000 )
                  (  0.0000000  0.0000000 -1.0000000 )


      isym = 11     inv. 180 deg rotation - cryst. axis [0,1,0]  

 cryst.   s(11) = (     1          1          0      )
                  (     0         -1          0      )
                  (     0          0          1      )

 cart.    s(11) = (  0.5000000  0.8660254  0.0000000 )
                  (  0.8660254 -0.5000000  0.0000000 )
                  (  0.0000000  0.0000000  1.0000000 )


      isym = 12     inv. 180 deg rotation - cryst. axis [1,1,0]  

 cryst.   s(12) = (     0         -1          0      )
                  (    -1          0          0      )
                  (     0          0          1      )

 cart.    s(12) = (  0.5000000 -0.8660254  0.0000000 )
                  ( -0.8660254 -0.5000000  0.0000000 )
                  (  0.0000000  0.0000000  1.0000000 )


   Cartesian axes

     site n.     atom                  positions (alat units)
         1           Y   tau(   1) = (   0.0000000   0.0000000   0.0000000  )
         2           Y   tau(   2) = (  -0.0000000   0.5773503   0.7857143  )

   Crystallographic axes

     site n.     atom                  positions (cryst. coord.)
         1           Y   tau(   1) = (  0.0000000  0.0000000  0.0000000  )
         2           Y   tau(   2) = (  0.3333333  0.6666667  0.5000000  )

     number of k points=    50  gaussian smearing, width (Ry)=  0.0010
                       cart. coord. in units 2pi/alat
        k(    1) = (   0.0000000   0.0000000   0.0000000), wk =   0.0400000
        k(    2) = (   0.0357143   0.0206197   0.0000000), wk =   0.0400000
        k(    3) = (   0.0714286   0.0412393   0.0000000), wk =   0.0400000
        k(    4) = (   0.1071429   0.0618590   0.0000000), wk =   0.0400000
        k(    5) = (   0.1428571   0.0824786   0.0000000), wk =   0.0400000
        k(    6) = (   0.1785714   0.1030983   0.0000000), wk =   0.0400000
        k(    7) = (   0.2142857   0.1237179   0.0000000), wk =   0.0400000
        k(    8) = (   0.2500000   0.1443376   0.0000000), wk =   0.0400000
        k(    9) = (   0.2857143   0.1649572   0.0000000), wk =   0.0400000
        k(   10) = (   0.3214286   0.1855769   0.0000000), wk =   0.0400000
        k(   11) = (   0.3571429   0.2061965   0.0000000), wk =   0.0400000
        k(   12) = (   0.3928571   0.2268162   0.0000000), wk =   0.0400000
        k(   13) = (   0.4285714   0.2474358   0.0000000), wk =   0.0400000
        k(   14) = (   0.4642857   0.2680555   0.0000000), wk =   0.0400000
        k(   15) = (   0.5000000   0.2886751   0.0000000), wk =   0.0400000
        k(   16) = (   0.4791667   0.3247595   0.0000000), wk =   0.0400000
        k(   17) = (   0.4583333   0.3608439   0.0000000), wk =   0.0400000
        k(   18) = (   0.4375000   0.3969283   0.0000000), wk =   0.0400000
        k(   19) = (   0.4166667   0.4330127   0.0000000), wk =   0.0400000
        k(   20) = (   0.3958333   0.4690971   0.0000000), wk =   0.0400000
        k(   21) = (   0.3750000   0.5051815   0.0000000), wk =   0.0400000
        k(   22) = (   0.3541667   0.5412659   0.0000000), wk =   0.0400000
        k(   23) = (   0.3333333   0.5773503   0.0000000), wk =   0.0400000
        k(   24) = (   0.3148148   0.5452753   0.0000000), wk =   0.0400000
        k(   25) = (   0.2962963   0.5132002   0.0000000), wk =   0.0400000
        k(   26) = (   0.2777778   0.4811252   0.0000000), wk =   0.0400000
        k(   27) = (   0.2592593   0.4490502   0.0000000), wk =   0.0400000
        k(   28) = (   0.2407407   0.4169752   0.0000000), wk =   0.0400000
        k(   29) = (   0.2222222   0.3849002   0.0000000), wk =   0.0400000
        k(   30) = (   0.2037037   0.3528252   0.0000000), wk =   0.0400000
        k(   31) = (   0.1851852   0.3207501   0.0000000), wk =   0.0400000
        k(   32) = (   0.1666667   0.2886751   0.0000000), wk =   0.0400000
        k(   33) = (   0.1481481   0.2566001   0.0000000), wk =   0.0400000
        k(   34) = (   0.1296296   0.2245251   0.0000000), wk =   0.0400000
        k(   35) = (   0.1111111   0.1924501   0.0000000), wk =   0.0400000
        k(   36) = (   0.0925926   0.1603751   0.0000000), wk =   0.0400000
        k(   37) = (   0.0740741   0.1283001   0.0000000), wk =   0.0400000
        k(   38) = (   0.0555556   0.0962250   0.0000000), wk =   0.0400000
        k(   39) = (   0.0370370   0.0641500   0.0000000), wk =   0.0400000
        k(   40) = (   0.0185185   0.0320750   0.0000000), wk =   0.0400000
        k(   41) = (   0.0000000   0.0000000   0.0000000), wk =   0.0400000
        k(   42) = (   0.0000000   0.0000000   0.0353535), wk =   0.0400000
        k(   43) = (   0.0000000   0.0000000   0.0707071), wk =   0.0400000
        k(   44) = (   0.0000000   0.0000000   0.1060606), wk =   0.0400000
        k(   45) = (   0.0000000   0.0000000   0.1414141), wk =   0.0400000
        k(   46) = (   0.0000000   0.0000000   0.1767677), wk =   0.0400000
        k(   47) = (   0.0000000   0.0000000   0.2121212), wk =   0.0400000
        k(   48) = (   0.0000000   0.0000000   0.2474747), wk =   0.0400000
        k(   49) = (   0.0000000   0.0000000   0.2828283), wk =   0.0400000
        k(   50) = (   0.0000000   0.0000000   0.3181818), wk =   0.0400000

                       cryst. coord.
        k(    1) = (   0.0000000   0.0000000   0.0000000), wk =   0.0400000
        k(    2) = (   0.0357143   0.0000000   0.0000000), wk =   0.0400000
        k(    3) = (   0.0714286   0.0000000   0.0000000), wk =   0.0400000
        k(    4) = (   0.1071429   0.0000000   0.0000000), wk =   0.0400000
        k(    5) = (   0.1428571   0.0000000   0.0000000), wk =   0.0400000
        k(    6) = (   0.1785714   0.0000000   0.0000000), wk =   0.0400000
        k(    7) = (   0.2142857   0.0000000   0.0000000), wk =   0.0400000
        k(    8) = (   0.2500000   0.0000000   0.0000000), wk =   0.0400000
        k(    9) = (   0.2857143   0.0000000   0.0000000), wk =   0.0400000
        k(   10) = (   0.3214286   0.0000000   0.0000000), wk =   0.0400000
        k(   11) = (   0.3571429   0.0000000   0.0000000), wk =   0.0400000
        k(   12) = (   0.3928571   0.0000000   0.0000000), wk =   0.0400000
        k(   13) = (   0.4285714   0.0000000   0.0000000), wk =   0.0400000
        k(   14) = (   0.4642857   0.0000000   0.0000000), wk =   0.0400000
        k(   15) = (   0.5000000   0.0000000   0.0000000), wk =   0.0400000
        k(   16) = (   0.4791667   0.0416667   0.0000000), wk =   0.0400000
        k(   17) = (   0.4583333   0.0833333   0.0000000), wk =   0.0400000
        k(   18) = (   0.4375000   0.1250000   0.0000000), wk =   0.0400000
        k(   19) = (   0.4166667   0.1666667   0.0000000), wk =   0.0400000
        k(   20) = (   0.3958333   0.2083333   0.0000000), wk =   0.0400000
        k(   21) = (   0.3750000   0.2500000   0.0000000), wk =   0.0400000
        k(   22) = (   0.3541667   0.2916667   0.0000000), wk =   0.0400000
        k(   23) = (   0.3333333   0.3333333   0.0000000), wk =   0.0400000
        k(   24) = (   0.3148148   0.3148148   0.0000000), wk =   0.0400000
        k(   25) = (   0.2962963   0.2962963   0.0000000), wk =   0.0400000
        k(   26) = (   0.2777778   0.2777778   0.0000000), wk =   0.0400000
        k(   27) = (   0.2592593   0.2592593   0.0000000), wk =   0.0400000
        k(   28) = (   0.2407407   0.2407407   0.0000000), wk =   0.0400000
        k(   29) = (   0.2222222   0.2222222   0.0000000), wk =   0.0400000
        k(   30) = (   0.2037037   0.2037037   0.0000000), wk =   0.0400000
        k(   31) = (   0.1851852   0.1851852   0.0000000), wk =   0.0400000
        k(   32) = (   0.1666667   0.1666667   0.0000000), wk =   0.0400000
        k(   33) = (   0.1481481   0.1481481   0.0000000), wk =   0.0400000
        k(   34) = (   0.1296296   0.1296296   0.0000000), wk =   0.0400000
        k(   35) = (   0.1111111   0.1111111   0.0000000), wk =   0.0400000
        k(   36) = (   0.0925926   0.0925926   0.0000000), wk =   0.0400000
        k(   37) = (   0.0740741   0.0740741   0.0000000), wk =   0.0400000
        k(   38) = (   0.0555556   0.0555556   0.0000000), wk =   0.0400000
        k(   39) = (   0.0370370   0.0370370   0.0000000), wk =   0.0400000
        k(   40) = (   0.0185185   0.0185185   0.0000000), wk =   0.0400000
        k(   41) = (   0.0000000   0.0000000   0.0000000), wk =   0.0400000
        k(   42) = (   0.0000000   0.0000000   0.0555556), wk =   0.0400000
        k(   43) = (   0.0000000   0.0000000   0.1111111), wk =   0.0400000
        k(   44) = (   0.0000000   0.0000000   0.1666667), wk =   0.0400000
        k(   45) = (   0.0000000   0.0000000   0.2222222), wk =   0.0400000
        k(   46) = (   0.0000000   0.0000000   0.2777778), wk =   0.0400000
        k(   47) = (   0.0000000   0.0000000   0.3333333), wk =   0.0400000
        k(   48) = (   0.0000000   0.0000000   0.3888889), wk =   0.0400000
        k(   49) = (   0.0000000   0.0000000   0.4444444), wk =   0.0400000
        k(   50) = (   0.0000000   0.0000000   0.5000000), wk =   0.0400000

     Dense  grid:    21277 G-vectors     FFT dimensions: (  32,  32,  50)

     Smooth grid:    15247 G-vectors     FFT dimensions: (  27,  27,  45)

     Estimated max dynamical RAM per process >      32.94Mb

     Check: negative/imaginary core charge=   -0.000001    0.000000

     The potential is recalculated from file :
     ./pwscf.save/charge-density.dat

     Starting wfc are   26 randomized atomic wfcs

     Band Structure Calculation
     Davidson diagonalization with overlap

     Computing kpt #:     1
     total cpu time spent up to now is        1.6 secs

     Computing kpt #:     2
     total cpu time spent up to now is        2.3 secs

     Computing kpt #:     3
     total cpu time spent up to now is        3.1 secs

     Computing kpt #:     4
     total cpu time spent up to now is        3.9 secs

     Computing kpt #:     5
     total cpu time spent up to now is        4.7 secs

     Computing kpt #:     6
     total cpu time spent up to now is        5.7 secs

     Computing kpt #:     7
     total cpu time spent up to now is        6.4 secs

     Computing kpt #:     8
     total cpu time spent up to now is        7.0 secs

     Computing kpt #:     9
     total cpu time spent up to now is        7.7 secs

     Computing kpt #:    10
     total cpu time spent up to now is        8.3 secs

     Computing kpt #:    11
     total cpu time spent up to now is        8.9 secs

     Computing kpt #:    12
     total cpu time spent up to now is        9.5 secs

     Computing kpt #:    13
     total cpu time spent up to now is       10.1 secs

     Computing kpt #:    14
     total cpu time spent up to now is       10.7 secs

     Computing kpt #:    15
     total cpu time spent up to now is       11.3 secs

     Computing kpt #:    16
     total cpu time spent up to now is       11.9 secs

     Computing kpt #:    17
     total cpu time spent up to now is       12.5 secs

     Computing kpt #:    18
     total cpu time spent up to now is       13.1 secs

     Computing kpt #:    19
     total cpu time spent up to now is       13.7 secs

     Computing kpt #:    20
     total cpu time spent up to now is       14.3 secs

     Computing kpt #:    21
     total cpu time spent up to now is       14.9 secs

     Computing kpt #:    22
     total cpu time spent up to now is       15.5 secs

     Computing kpt #:    23
     total cpu time spent up to now is       16.2 secs

     Computing kpt #:    24
     total cpu time spent up to now is       16.8 secs

     Computing kpt #:    25
     total cpu time spent up to now is       17.4 secs

     Computing kpt #:    26
     total cpu time spent up to now is       18.0 secs

     Computing kpt #:    27
     total cpu time spent up to now is       18.6 secs

     Computing kpt #:    28
     total cpu time spent up to now is       19.2 secs

     Computing kpt #:    29
     total cpu time spent up to now is       19.8 secs

     Computing kpt #:    30
     total cpu time spent up to now is       20.4 secs

     Computing kpt #:    31
     total cpu time spent up to now is       21.0 secs

     Computing kpt #:    32
     total cpu time spent up to now is       21.6 secs

     Computing kpt #:    33
     total cpu time spent up to now is       22.3 secs

     Computing kpt #:    34
     total cpu time spent up to now is       23.0 secs

     Computing kpt #:    35
     total cpu time spent up to now is       23.7 secs

     Computing kpt #:    36
     total cpu time spent up to now is       24.5 secs

     Computing kpt #:    37
     total cpu time spent up to now is       25.4 secs

     Computing kpt #:    38
     total cpu time spent up to now is       26.2 secs

     Computing kpt #:    39
     total cpu time spent up to now is       27.0 secs

     Computing kpt #:    40
     total cpu time spent up to now is       27.8 secs

     Computing kpt #:    41
     total cpu time spent up to now is       28.5 secs

     Computing kpt #:    42
     total cpu time spent up to now is       29.3 secs

     Computing kpt #:    43
     total cpu time spent up to now is       30.1 secs

     Computing kpt #:    44
     total cpu time spent up to now is       30.8 secs

     Computing kpt #:    45
     total cpu time spent up to now is       31.5 secs

     Computing kpt #:    46
     total cpu time spent up to now is       32.3 secs

     Computing kpt #:    47
     total cpu time spent up to now is       32.9 secs

     Computing kpt #:    48
     total cpu time spent up to now is       33.7 secs

     Computing kpt #:    49
     total cpu time spent up to now is       34.5 secs

     Computing kpt #:    50
     total cpu time spent up to now is       35.1 secs

     ethr =  4.55E-10,  avg # of iterations = 19.7

     total cpu time spent up to now is       35.1 secs

     End of band structure calculation

          k = 0.0000 0.0000 0.0000 (  1899 PWs)   bands (ev):

   -33.2159 -33.1443 -13.4870 -13.0301 -13.0301 -12.9431 -12.9431 -12.9026
     4.8278   7.6290  10.3257  11.2193  11.2193  11.5114  11.8174

          k = 0.0357 0.0206 0.0000 (  1880 PWs)   bands (ev):

   -33.2153 -33.1441 -13.4848 -13.0347 -13.0317 -12.9480 -12.9437 -12.9036
     4.8548   7.6548  10.2975  11.1240  11.2447  11.5865  11.7867

          k = 0.0714 0.0412 0.0000 (  1864 PWs)   bands (ev):

   -33.2134 -33.1434 -13.4781 -13.0483 -13.0363 -12.9623 -12.9455 -12.9067
     4.9352   7.7309  10.2160  10.9356  11.3201  11.6787  11.7395

          k = 0.1071 0.0619 0.0000 (  1872 PWs)   bands (ev):

   -33.2103 -33.1423 -13.4671 -13.0702 -13.0437 -12.9851 -12.9484 -12.9119
     5.0672   7.8530  10.0900  10.7144  11.4445  11.5550  11.8769

          k = 0.1429 0.0825 0.0000 (  1880 PWs)   bands (ev):

   -33.2063 -33.1410 -13.4522 -13.0994 -13.0533 -13.0151 -12.9524 -12.9192
     5.2474   8.0130   9.9315  10.4798  11.3947  11.6172  11.8093

          k = 0.1786 0.1031 0.0000 (  1872 PWs)   bands (ev):

   -33.2013 -33.1394 -13.4337 -13.1344 -13.0646 -13.0504 -12.9575 -12.9286
     5.4713   8.1976   9.7533  10.2474  11.2297  11.6483  11.7641

          k = 0.2143 0.1237 0.0000 (  1880 PWs)   bands (ev):

   -33.1956 -33.1378 -13.4120 -13.1735 -13.0890 -13.0769 -12.9633 -12.9400
     5.7329   8.3856   9.5672  10.0323  11.0835  11.4943  11.6169

          k = 0.2500 0.1443 0.0000 (  1892 PWs)   bands (ev):

   -33.1895 -33.1362 -13.3879 -13.2147 -13.1290 -13.0897 -12.9696 -12.9533
     6.0248   8.5456   9.3833   9.8498  10.9817  11.3518  11.4761

          k = 0.2857 0.1650 0.0000 (  1896 PWs)   bands (ev):

   -33.1832 -33.1349 -13.3619 -13.2560 -13.1682 -13.1022 -12.9760 -12.9685
     6.3377   8.6419   9.2098   9.7109  10.9504  11.2244  11.3464

          k = 0.3214 0.1856 0.0000 (  1896 PWs)   bands (ev):

   -33.1769 -33.1339 -13.3350 -13.2953 -13.2048 -13.1140 -12.9851 -12.9823
     6.6604   8.6565   9.0533   9.6119  11.0032  11.1140  11.2316

          k = 0.3571 0.2062 0.0000 (  1908 PWs)   bands (ev):

   -33.1709 -33.1333 -13.3305 -13.3082 -13.2372 -13.1244 -13.0026 -12.9880
     6.9794   8.6065   8.9189   9.5344  11.0219  11.1245  11.1344

          k = 0.3929 0.2268 0.0000 (  1916 PWs)   bands (ev):

   -33.1655 -33.1331 -13.3598 -13.2830 -13.2639 -13.1330 -13.0201 -12.9928
     7.2789   8.5229   8.8107   9.4671  10.9493  11.0568  11.2725

          k = 0.4286 0.2474 0.0000 (  1916 PWs)   bands (ev):

   -33.1612 -33.1333 -13.3819 -13.2838 -13.2614 -13.1394 -13.0359 -12.9964
     7.5399   8.4285   8.7314   9.4111  10.8970  11.0006  11.4033

          k = 0.4643 0.2681 0.0000 (  1906 PWs)   bands (ev):

   -33.1583 -33.1336 -13.3955 -13.2961 -13.2463 -13.1434 -13.0474 -12.9987
     7.7357   8.3409   8.6831   9.3733  10.8657  10.9665  11.4886

          k = 0.5000 0.2887 0.0000 (  1914 PWs)   bands (ev):

   -33.1573 -33.1338 -13.4002 -13.3003 -13.2407 -13.1448 -13.0517 -12.9995
     7.8162   8.2982   8.6668   9.3598  10.8553  10.9550  11.5177

          k = 0.4792 0.3248 0.0000 (  1902 PWs)   bands (ev):

   -33.1569 -33.1339 -13.3983 -13.2986 -13.2389 -13.1482 -13.0531 -13.0037
     7.8410   8.3236   8.6720   9.3478  10.8483  10.9333  11.5231

          k = 0.4583 0.3608 0.0000 (  1907 PWs)   bands (ev):

   -33.1559 -33.1340 -13.3930 -13.2935 -13.2335 -13.1580 -13.0573 -13.0161
     7.9134   8.3967   8.6865   9.3128  10.8274  10.8727  11.5391

          k = 0.4375 0.3969 0.0000 (  1913 PWs)   bands (ev):

   -33.1543 -33.1344 -13.3843 -13.2855 -13.2247 -13.1734 -13.0642 -13.0355
     8.0279   8.5099   8.7082   9.2582  10.7858  10.7939  11.5657

          k = 0.4167 0.4330 0.0000 (  1899 PWs)   bands (ev):

   -33.1521 -33.1349 -13.3729 -13.2749 -13.2127 -13.1925 -13.0739 -13.0603
     8.1749   8.6492   8.7335   9.1887  10.6901  10.7496  11.6033

          k = 0.3958 0.4691 0.0000 (  1895 PWs)   bands (ev):

   -33.1496 -33.1358 -13.3597 -13.2628 -13.2131 -13.1979 -13.0878 -13.0864
     8.3417   8.7576   8.7936   9.1093  10.6039  10.6976  11.6511

          k = 0.3750 0.5052 0.0000 (  1905 PWs)   bands (ev):

   -33.1468 -33.1371 -13.3465 -13.2508 -13.2317 -13.1805 -13.1148 -13.1016
     8.5133   8.7758   8.9166   9.0244  10.5434  10.6419  11.7052

          k = 0.3542 0.5413 0.0000 (  1911 PWs)   bands (ev):

   -33.1440 -33.1388 -13.3363 -13.2436 -13.2427 -13.1611 -13.1357 -13.1196
     8.6751   8.7855   8.9256   9.0008  10.5207  10.5878  11.7547

          k = 0.3333 0.5774 0.0000 (  1905 PWs)   bands (ev):

   -33.1412 -33.1412 -13.3329 -13.2437 -13.2436 -13.1435 -13.1400 -13.1400
     8.7878   8.8157   8.8157   9.0228  10.5409  10.5410  11.7775

          k = 0.3148 0.5453 0.0000 (  1911 PWs)   bands (ev):

   -33.1439 -33.1389 -13.3344 -13.2524 -13.2338 -13.1602 -13.1382 -13.1204
     8.6816   8.7877   8.9183   9.0130  10.5098  10.5933  11.7534

          k = 0.2963 0.5132 0.0000 (  1911 PWs)   bands (ev):

   -33.1470 -33.1369 -13.3360 -13.2637 -13.2181 -13.1821 -13.1253 -13.1002
     8.4967   8.7910   8.9994   9.0010  10.4926  10.6736  11.6759

          k = 0.2778 0.4811 0.0000 (  1903 PWs)   bands (ev):

   -33.1508 -33.1353 -13.3344 -13.2730 -13.2055 -13.1994 -13.1087 -13.0798
     8.2594   8.8034   9.0051   9.0602  10.4923  10.7759  11.5494

          k = 0.2593 0.4491 0.0000 (  1901 PWs)   bands (ev):

   -33.1551 -33.1341 -13.3277 -13.2780 -13.2300 -13.1795 -13.0905 -13.0596
     7.9804   8.8295   9.0325   9.1009  10.5115  10.8936  11.3908

          k = 0.2407 0.4170 0.0000 (  1909 PWs)   bands (ev):

   -33.1599 -33.1333 -13.3150 -13.2774 -13.2555 -13.1592 -13.0719 -13.0398
     7.6738   8.8728   9.0856   9.1192  10.5525  11.0207  11.2230

          k = 0.2222 0.3849 0.0000 (  1919 PWs)   bands (ev):

   -33.1651 -33.1331 -13.2963 -13.2815 -13.2710 -13.1393 -13.0536 -13.0208
     7.3522   8.9355   9.1090   9.1651  10.6160  11.0701  11.1517

          k = 0.2037 0.3528 0.0000 (  1919 PWs)   bands (ev):

   -33.1707 -33.1332 -13.3077 -13.2718 -13.2587 -13.1200 -13.0359 -13.0028
     7.0258   9.0187   9.0613   9.2708  10.7032  10.9552  11.2823

          k = 0.1852 0.3208 0.0000 (  1909 PWs)   bands (ev):

   -33.1765 -33.1338 -13.3336 -13.2422 -13.2411 -13.1016 -13.0194 -12.9859
     6.7031   8.9692   9.1221   9.4020  10.8136  10.8948  11.4086

          k = 0.1667 0.2887 0.0000 (  1903 PWs)   bands (ev):

   -33.1824 -33.1347 -13.3588 -13.2189 -13.2087 -13.0843 -13.0041 -12.9703
     6.3907   8.8337   9.2444   9.5571  10.8948  10.9462  11.5283

          k = 0.1481 0.2566 0.0000 (  1891 PWs)   bands (ev):

   -33.1882 -33.1359 -13.3828 -13.1932 -13.1729 -13.0680 -12.9904 -12.9562
     6.0946   8.6652   9.3831   9.7337  10.9497  11.0988  11.6398

          k = 0.1296 0.2245 0.0000 (  1881 PWs)   bands (ev):

   -33.1939 -33.1373 -13.4052 -13.1654 -13.1367 -13.0522 -12.9783 -12.9437
     5.8199   8.4783   9.5341   9.9287  11.0480  11.2684  11.7434

          k = 0.1111 0.1925 0.0000 (  1885 PWs)   bands (ev):

   -33.1992 -33.1388 -13.4255 -13.1368 -13.1029 -13.0361 -12.9680 -12.9328
     5.5713   8.2879   9.6923  10.1373  11.1757  11.4502  11.8403

          k = 0.0926 0.1604 0.0000 (  1873 PWs)   bands (ev):

   -33.2039 -33.1402 -13.4435 -13.1090 -13.0749 -13.0179 -12.9596 -12.9235
     5.3529   8.1067   9.8508  10.3542  11.3189  11.6381  11.7418

          k = 0.0741 0.1283 0.0000 (  1873 PWs)   bands (ev):

   -33.2080 -33.1416 -13.4588 -13.0834 -13.0553 -12.9970 -12.9530 -12.9160
     5.1686   7.9452  10.0010  10.5722  11.4544  11.5673  11.8232

          k = 0.0556 0.0962 0.0000 (  1873 PWs)   bands (ev):

   -33.2114 -33.1427 -13.4709 -13.0615 -13.0429 -12.9759 -12.9483 -12.9101
     5.0216   7.8114  10.1330  10.7830  11.3998  11.6135  11.8069

          k = 0.0370 0.0642 0.0000 (  1877 PWs)   bands (ev):

   -33.2139 -33.1436 -13.4798 -13.0446 -13.0355 -12.9584 -12.9452 -12.9059
     4.9146   7.7115  10.2366  10.9773  11.3006  11.6891  11.7205

          k = 0.0185 0.0321 0.0000 (  1881 PWs)   bands (ev):

   -33.2154 -33.1441 -13.4852 -13.0338 -13.0314 -12.9470 -12.9436 -12.9034
     4.8496   7.6499  10.3029  11.1399  11.2398  11.5745  11.7924

          k = 0.0000 0.0000 0.0000 (  1899 PWs)   bands (ev):

   -33.2159 -33.1443 -13.4870 -13.0301 -13.0301 -12.9431 -12.9431 -12.9026
     4.8278   7.6290  10.3257  11.2193  11.2193  11.5114  11.8174

          k = 0.0000 0.0000 0.0354 (  1881 PWs)   bands (ev):

   -33.2153 -33.1449 -13.4828 -13.0295 -13.0295 -12.9438 -12.9438 -12.9073
     4.8479   7.6147  10.3062  11.2061  11.2061  11.4914  11.7993

          k = 0.0000 0.0000 0.0707 (  1876 PWs)   bands (ev):

   -33.2137 -33.1465 -13.4703 -13.0275 -13.0275 -12.9458 -12.9458 -12.9213
     4.9079   7.5696  10.2550  11.1723  11.1723  11.4323  11.7479

          k = 0.0000 0.0000 0.1061 (  1858 PWs)   bands (ev):

   -33.2111 -33.1492 -13.4499 -13.0243 -13.0243 -12.9490 -12.9490 -12.9439
     5.0066   7.4888  10.1911  11.1310  11.1310  11.3376  11.6710

          k = 0.0000 0.0000 0.1414 (  1870 PWs)   bands (ev):

   -33.2076 -33.1528 -13.4220 -13.0200 -13.0200 -12.9746 -12.9534 -12.9534
     5.1421   7.3667  10.1373  11.0938  11.0938  11.2124  11.5778

          k = 0.0000 0.0000 0.1768 (  1876 PWs)   bands (ev):

   -33.2032 -33.1572 -13.3874 -13.0147 -13.0147 -13.0121 -12.9587 -12.9587
     5.3117   7.2013  10.1134  11.0639  11.0685  11.0685  11.4780

          k = 0.0000 0.0000 0.2121 (  1882 PWs)   bands (ev):

   -33.1981 -33.1623 -13.3471 -13.0552 -13.0085 -13.0085 -12.9650 -12.9650
     5.5118   6.9960  10.1303  10.9010  11.0594  11.0594  11.3794

          k = 0.0000 0.0000 0.2475 (  1882 PWs)   bands (ev):

   -33.1925 -33.1680 -13.3021 -13.1025 -13.0016 -13.0016 -12.9719 -12.9719
     5.7378   6.7599  10.1899  10.7326  11.0687  11.0687  11.2879

          k = 0.0000 0.0000 0.2828 (  1876 PWs)   bands (ev):

   -33.1865 -33.1740 -13.2537 -13.1523 -12.9943 -12.9943 -12.9792 -12.9792
     5.9837   6.5046  10.2879  10.5684  11.0970  11.0970  11.2084

          k = 0.0000 0.0000 0.3182 (  1882 PWs)   bands (ev):

   -33.1803 -33.1802 -13.2033 -13.2032 -12.9868 -12.9868 -12.9868 -12.9868
     6.2423   6.2423  10.4170  10.4170  11.1439  11.1439  11.1439

     Writing output data file pwscf.save

     init_run     :      0.72s CPU      0.76s WALL (       1 calls)
     electrons    :     42.75s CPU     34.18s WALL (       1 calls)

     Called by init_run:
     wfcinit      :      0.00s CPU      0.00s WALL (       1 calls)
     wfcinit:atom :      0.17s CPU      0.06s WALL (      50 calls)
     wfcinit:wfcr :      4.36s CPU      3.33s WALL (      50 calls)
     potinit      :      0.05s CPU      0.07s WALL (       1 calls)

     Called by electrons:
     c_bands      :     42.75s CPU     34.17s WALL (       1 calls)
     v_of_rho     :      0.05s CPU      0.05s WALL (       1 calls)
     v_h          :      0.00s CPU      0.00s WALL (       1 calls)
     v_xc         :      0.05s CPU      0.05s WALL (       1 calls)
     newd         :      0.09s CPU      0.16s WALL (       1 calls)

     Called by c_bands:
     init_us_2    :      0.03s CPU      0.07s WALL (      50 calls)
     cegterg      :     37.38s CPU     30.07s WALL (      68 calls)

     Called by sum_band:

     Called by *egterg:
     h_psi        :     33.16s CPU     26.20s WALL (    1103 calls)
     s_psi        :      0.78s CPU      0.62s WALL (    1103 calls)
     g_psi        :      0.08s CPU      0.14s WALL (     985 calls)
     cdiaghg      :      3.39s CPU      2.90s WALL (    1035 calls)
     cegterg:over :      1.67s CPU      1.29s WALL (     985 calls)
     cegterg:upda :      1.19s CPU      1.05s WALL (     985 calls)
     cegterg:last :      0.78s CPU      0.73s WALL (     222 calls)

     Called by h_psi:
     h_psi:pot    :     32.98s CPU     26.08s WALL (    1103 calls)
     h_psi:calbec :      0.91s CPU      0.69s WALL (    1103 calls)
     vloc_psi     :     31.22s CPU     24.70s WALL (    1103 calls)
     add_vuspsi   :      0.84s CPU      0.67s WALL (    1103 calls)

     General routines
     calbec       :      0.88s CPU      0.67s WALL (    1103 calls)
     fft          :      0.00s CPU      0.02s WALL (      13 calls)
     ffts         :      0.00s CPU      0.00s WALL (       1 calls)
     fftw         :     28.92s CPU     23.03s WALL (   21198 calls)
     interpolate  :      0.00s CPU      0.01s WALL (       1 calls)
     davcio       :      0.00s CPU      0.01s WALL (      50 calls)

     Parallel routines
     fft_scatter  :      0.84s CPU      0.86s WALL (   21212 calls)

     PWSCF        :    43.75s CPU        35.36s WALL


   This run was terminated on:  16:46: 7  25Feb2021            

=------------------------------------------------------------------------------=
   JOB DONE.
=------------------------------------------------------------------------------=
