
     Program PWSCF v.6.0 (svn rev. 13079) starts on 25Feb2021 at 19: 1:40 

     This program is part of the open-source Quantum ESPRESSO suite
     for quantum simulation of materials; please cite
         "P. Giannozzi et al., J. Phys.:Condens. Matter 21 395502 (2009);
          URL http://www.quantum-espresso.org", 
     in publications or presentations arising from this work. More details at
     http://www.quantum-espresso.org/quote

     Parallel version (MPI), running on     1 processors
     Reading input from espresso.pwi
Warning: card &IONS ignored
Warning: card / ignored
Warning: card &CELL ignored
Warning: card / ignored

     Current dimensions of program PWSCF are:
     Max number of different atomic species (ntypx) = 10
     Max number of k-points (npk) =  40000
     Max angular momentum in pseudopotentials (lmaxx) =  3
     Message from routine input:
     WARNING: "startingwfc" set to atomic+random may spoil restart

     Atomic positions and unit cell read from directory:
     ./pwscf.save/


     IMPORTANT: XC functional enforced from input :
     Exchange-correlation      = PBE ( 1  4  3  4 0 0)
     Any further DFT definition will be discarded
     Please, verify this is what you really want


     Subspace diagonalization in iterative solution of the eigenvalue problem:
     a serial algorithm will be used


     G-vector sticks info
     --------------------
     sticks:   dense  smooth     PW     G-vecs:    dense   smooth      PW
     Sum         361     283     91                 4477     3143     609



     bravais-lattice index     =            0
     lattice parameter (alat)  =       5.0817  a.u.
     unit-cell volume          =      92.7931 (a.u.)^3
     number of atoms/cell      =            1
     number of atomic types    =            1
     number of electrons       =        15.00
     number of Kohn-Sham states=           12
     kinetic-energy cutoff     =      40.0000  Ry
     charge density cutoff     =     200.0000  Ry
     Exchange-correlation      = PBE ( 1  4  3  4 0 0)

     celldm(1)=   5.081714  celldm(2)=   0.000000  celldm(3)=   0.000000
     celldm(4)=   0.000000  celldm(5)=   0.000000  celldm(6)=   0.000000

     crystal axes: (cart. coord. in units of alat)
               a(1) = (   0.000000   0.707107   0.707107 )  
               a(2) = (   0.707107   0.000000   0.707107 )  
               a(3) = (   0.707107   0.707107   0.000000 )  

     reciprocal axes: (cart. coord. in units 2 pi/alat)
               b(1) = ( -0.707107  0.707107  0.707107 )  
               b(2) = (  0.707107 -0.707107  0.707107 )  
               b(3) = (  0.707107  0.707107 -0.707107 )  


     PseudoPot. # 1 for Rh read from file:
     /home/inukai/tango/tests/1element/qe_fit_v2_Rh/../pseudo/rh_pbe_v1.4.uspp.F.UPF
     MD5 check sum: 761627e959a2e3a1f56b0b5fe687810e
     Pseudo is Ultrasoft + core correction, Zval = 15.0
     Generated by new atomic code, or converted to UPF format
     Using radial grid of  969 points,  7 beta functions with: 
                l(1) =   0
                l(2) =   0
                l(3) =   1
                l(4) =   1
                l(5) =   2
                l(6) =   2
                l(7) =   2
     Q(r) pseudized with  8 coefficients,  rinner =    1.200   1.200   1.200
                                                       1.200   1.200

     atomic species   valence    mass     pseudopotential
        Rh            15.00   102.90550     Rh( 1.00)

     48 Sym. Ops., with inversion, found


                                    s                        frac. trans.

      isym =  1     identity                                     

 cryst.   s( 1) = (     1          0          0      )
                  (     0          1          0      )
                  (     0          0          1      )

 cart.    s( 1) = (  1.0000000  0.0000000  0.0000000 )
                  (  0.0000000  1.0000000  0.0000000 )
                  (  0.0000000  0.0000000  1.0000000 )


      isym =  2     180 deg rotation - cart. axis [0,0,1]        

 cryst.   s( 2) = (     0          1         -1      )
                  (     1          0         -1      )
                  (     0          0         -1      )

 cart.    s( 2) = ( -1.0000000  0.0000000  0.0000000 )
                  (  0.0000000 -1.0000000  0.0000000 )
                  (  0.0000000  0.0000000  1.0000000 )


      isym =  3     180 deg rotation - cart. axis [0,1,0]        

 cryst.   s( 3) = (     0         -1          1      )
                  (     0         -1          0      )
                  (     1         -1          0      )

 cart.    s( 3) = ( -1.0000000  0.0000000  0.0000000 )
                  (  0.0000000  1.0000000  0.0000000 )
                  (  0.0000000  0.0000000 -1.0000000 )


      isym =  4     180 deg rotation - cart. axis [1,0,0]        

 cryst.   s( 4) = (    -1          0          0      )
                  (    -1          0          1      )
                  (    -1          1          0      )

 cart.    s( 4) = (  1.0000000  0.0000000  0.0000000 )
                  (  0.0000000 -1.0000000  0.0000000 )
                  (  0.0000000  0.0000000 -1.0000000 )


      isym =  5     180 deg rotation - cart. axis [1,1,0]        

 cryst.   s( 5) = (    -1          0          1      )
                  (     0         -1          1      )
                  (     0          0          1      )

 cart.    s( 5) = (  0.0000000  1.0000000  0.0000000 )
                  (  1.0000000  0.0000000  0.0000000 )
                  (  0.0000000  0.0000000 -1.0000000 )


      isym =  6     180 deg rotation - cart. axis [1,-1,0]       

 cryst.   s( 6) = (     0         -1          0      )
                  (    -1          0          0      )
                  (     0          0         -1      )

 cart.    s( 6) = (  0.0000000 -1.0000000  0.0000000 )
                  ( -1.0000000  0.0000000  0.0000000 )
                  (  0.0000000  0.0000000 -1.0000000 )


      isym =  7      90 deg rotation - cart. axis [0,0,-1]       

 cryst.   s( 7) = (     0          1          0      )
                  (     0          1         -1      )
                  (    -1          1          0      )

 cart.    s( 7) = (  0.0000000  1.0000000  0.0000000 )
                  ( -1.0000000  0.0000000  0.0000000 )
                  (  0.0000000  0.0000000  1.0000000 )


      isym =  8      90 deg rotation - cart. axis [0,0,1]        

 cryst.   s( 8) = (     1          0         -1      )
                  (     1          0          0      )
                  (     1         -1          0      )

 cart.    s( 8) = (  0.0000000 -1.0000000  0.0000000 )
                  (  1.0000000  0.0000000  0.0000000 )
                  (  0.0000000  0.0000000  1.0000000 )


      isym =  9     180 deg rotation - cart. axis [1,0,1]        

 cryst.   s( 9) = (    -1          1          0      )
                  (     0          1          0      )
                  (     0          1         -1      )

 cart.    s( 9) = (  0.0000000  0.0000000  1.0000000 )
                  (  0.0000000 -1.0000000  0.0000000 )
                  (  1.0000000  0.0000000  0.0000000 )


      isym = 10     180 deg rotation - cart. axis [-1,0,1]       

 cryst.   s(10) = (     0          0         -1      )
                  (     0         -1          0      )
                  (    -1          0          0      )

 cart.    s(10) = (  0.0000000  0.0000000 -1.0000000 )
                  (  0.0000000 -1.0000000  0.0000000 )
                  ( -1.0000000  0.0000000  0.0000000 )


      isym = 11      90 deg rotation - cart. axis [0,1,0]        

 cryst.   s(11) = (     0          0          1      )
                  (    -1          0          1      )
                  (     0         -1          1      )

 cart.    s(11) = (  0.0000000  0.0000000  1.0000000 )
                  (  0.0000000  1.0000000  0.0000000 )
                  ( -1.0000000  0.0000000  0.0000000 )


      isym = 12      90 deg rotation - cart. axis [0,-1,0]       

 cryst.   s(12) = (     1         -1          0      )
                  (     1          0         -1      )
                  (     1          0          0      )

 cart.    s(12) = (  0.0000000  0.0000000 -1.0000000 )
                  (  0.0000000  1.0000000  0.0000000 )
                  (  1.0000000  0.0000000  0.0000000 )


      isym = 13     180 deg rotation - cart. axis [0,1,1]        

 cryst.   s(13) = (     1          0          0      )
                  (     1         -1          0      )
                  (     1          0         -1      )

 cart.    s(13) = ( -1.0000000  0.0000000  0.0000000 )
                  (  0.0000000  0.0000000  1.0000000 )
                  (  0.0000000  1.0000000  0.0000000 )


      isym = 14     180 deg rotation - cart. axis [0,1,-1]       

 cryst.   s(14) = (    -1          0          0      )
                  (     0          0         -1      )
                  (     0         -1          0      )

 cart.    s(14) = ( -1.0000000  0.0000000  0.0000000 )
                  (  0.0000000  0.0000000 -1.0000000 )
                  (  0.0000000 -1.0000000  0.0000000 )


      isym = 15      90 deg rotation - cart. axis [-1,0,0]       

 cryst.   s(15) = (     0         -1          1      )
                  (     0          0          1      )
                  (    -1          0          1      )

 cart.    s(15) = (  1.0000000  0.0000000  0.0000000 )
                  (  0.0000000  0.0000000  1.0000000 )
                  (  0.0000000 -1.0000000  0.0000000 )


      isym = 16      90 deg rotation - cart. axis [1,0,0]        

 cryst.   s(16) = (     0          1         -1      )
                  (    -1          1          0      )
                  (     0          1          0      )

 cart.    s(16) = (  1.0000000  0.0000000  0.0000000 )
                  (  0.0000000  0.0000000 -1.0000000 )
                  (  0.0000000  1.0000000  0.0000000 )


      isym = 17     120 deg rotation - cart. axis [-1,-1,-1]     

 cryst.   s(17) = (     0          0          1      )
                  (     1          0          0      )
                  (     0          1          0      )

 cart.    s(17) = (  0.0000000  1.0000000  0.0000000 )
                  (  0.0000000  0.0000000  1.0000000 )
                  (  1.0000000  0.0000000  0.0000000 )


      isym = 18     120 deg rotation - cart. axis [-1,1,1]       

 cryst.   s(18) = (     1         -1          0      )
                  (     0         -1          1      )
                  (     0         -1          0      )

 cart.    s(18) = (  0.0000000 -1.0000000  0.0000000 )
                  (  0.0000000  0.0000000  1.0000000 )
                  ( -1.0000000  0.0000000  0.0000000 )


      isym = 19     120 deg rotation - cart. axis [1,1,-1]       

 cryst.   s(19) = (    -1          1          0      )
                  (    -1          0          0      )
                  (    -1          0          1      )

 cart.    s(19) = (  0.0000000  1.0000000  0.0000000 )
                  (  0.0000000  0.0000000 -1.0000000 )
                  ( -1.0000000  0.0000000  0.0000000 )


      isym = 20     120 deg rotation - cart. axis [1,-1,1]       

 cryst.   s(20) = (     0          0         -1      )
                  (     0          1         -1      )
                  (     1          0         -1      )

 cart.    s(20) = (  0.0000000 -1.0000000  0.0000000 )
                  (  0.0000000  0.0000000 -1.0000000 )
                  (  1.0000000  0.0000000  0.0000000 )


      isym = 21     120 deg rotation - cart. axis [1,1,1]        

 cryst.   s(21) = (     0          1          0      )
                  (     0          0          1      )
                  (     1          0          0      )

 cart.    s(21) = (  0.0000000  0.0000000  1.0000000 )
                  (  1.0000000  0.0000000  0.0000000 )
                  (  0.0000000  1.0000000  0.0000000 )


      isym = 22     120 deg rotation - cart. axis [-1,1,-1]      

 cryst.   s(22) = (    -1          0          1      )
                  (    -1          1          0      )
                  (    -1          0          0      )

 cart.    s(22) = (  0.0000000  0.0000000  1.0000000 )
                  ( -1.0000000  0.0000000  0.0000000 )
                  (  0.0000000 -1.0000000  0.0000000 )


      isym = 23     120 deg rotation - cart. axis [1,-1,-1]      

 cryst.   s(23) = (     1          0         -1      )
                  (     0          0         -1      )
                  (     0          1         -1      )

 cart.    s(23) = (  0.0000000  0.0000000 -1.0000000 )
                  ( -1.0000000  0.0000000  0.0000000 )
                  (  0.0000000  1.0000000  0.0000000 )


      isym = 24     120 deg rotation - cart. axis [-1,-1,1]      

 cryst.   s(24) = (     0         -1          0      )
                  (     1         -1          0      )
                  (     0         -1          1      )

 cart.    s(24) = (  0.0000000  0.0000000 -1.0000000 )
                  (  1.0000000  0.0000000  0.0000000 )
                  (  0.0000000 -1.0000000  0.0000000 )


      isym = 25     inversion                                    

 cryst.   s(25) = (    -1          0          0      )
                  (     0         -1          0      )
                  (     0          0         -1      )

 cart.    s(25) = ( -1.0000000  0.0000000  0.0000000 )
                  (  0.0000000 -1.0000000  0.0000000 )
                  (  0.0000000  0.0000000 -1.0000000 )


      isym = 26     inv. 180 deg rotation - cart. axis [0,0,1]   

 cryst.   s(26) = (     0         -1          1      )
                  (    -1          0          1      )
                  (     0          0          1      )

 cart.    s(26) = (  1.0000000  0.0000000  0.0000000 )
                  (  0.0000000  1.0000000  0.0000000 )
                  (  0.0000000  0.0000000 -1.0000000 )


      isym = 27     inv. 180 deg rotation - cart. axis [0,1,0]   

 cryst.   s(27) = (     0          1         -1      )
                  (     0          1          0      )
                  (    -1          1          0      )

 cart.    s(27) = (  1.0000000  0.0000000  0.0000000 )
                  (  0.0000000 -1.0000000  0.0000000 )
                  (  0.0000000  0.0000000  1.0000000 )


      isym = 28     inv. 180 deg rotation - cart. axis [1,0,0]   

 cryst.   s(28) = (     1          0          0      )
                  (     1          0         -1      )
                  (     1         -1          0      )

 cart.    s(28) = ( -1.0000000  0.0000000  0.0000000 )
                  (  0.0000000  1.0000000  0.0000000 )
                  (  0.0000000  0.0000000  1.0000000 )


      isym = 29     inv. 180 deg rotation - cart. axis [1,1,0]   

 cryst.   s(29) = (     1          0         -1      )
                  (     0          1         -1      )
                  (     0          0         -1      )

 cart.    s(29) = (  0.0000000 -1.0000000  0.0000000 )
                  ( -1.0000000  0.0000000  0.0000000 )
                  (  0.0000000  0.0000000  1.0000000 )


      isym = 30     inv. 180 deg rotation - cart. axis [1,-1,0]  

 cryst.   s(30) = (     0          1          0      )
                  (     1          0          0      )
                  (     0          0          1      )

 cart.    s(30) = (  0.0000000  1.0000000  0.0000000 )
                  (  1.0000000  0.0000000  0.0000000 )
                  (  0.0000000  0.0000000  1.0000000 )


      isym = 31     inv.  90 deg rotation - cart. axis [0,0,-1]  

 cryst.   s(31) = (     0         -1          0      )
                  (     0         -1          1      )
                  (     1         -1          0      )

 cart.    s(31) = (  0.0000000 -1.0000000  0.0000000 )
                  (  1.0000000  0.0000000  0.0000000 )
                  (  0.0000000  0.0000000 -1.0000000 )


      isym = 32     inv.  90 deg rotation - cart. axis [0,0,1]   

 cryst.   s(32) = (    -1          0          1      )
                  (    -1          0          0      )
                  (    -1          1          0      )

 cart.    s(32) = (  0.0000000  1.0000000  0.0000000 )
                  ( -1.0000000  0.0000000  0.0000000 )
                  (  0.0000000  0.0000000 -1.0000000 )


      isym = 33     inv. 180 deg rotation - cart. axis [1,0,1]   

 cryst.   s(33) = (     1         -1          0      )
                  (     0         -1          0      )
                  (     0         -1          1      )

 cart.    s(33) = (  0.0000000  0.0000000 -1.0000000 )
                  (  0.0000000  1.0000000  0.0000000 )
                  ( -1.0000000  0.0000000  0.0000000 )


      isym = 34     inv. 180 deg rotation - cart. axis [-1,0,1]  

 cryst.   s(34) = (     0          0          1      )
                  (     0          1          0      )
                  (     1          0          0      )

 cart.    s(34) = (  0.0000000  0.0000000  1.0000000 )
                  (  0.0000000  1.0000000  0.0000000 )
                  (  1.0000000  0.0000000  0.0000000 )


      isym = 35     inv.  90 deg rotation - cart. axis [0,1,0]   

 cryst.   s(35) = (     0          0         -1      )
                  (     1          0         -1      )
                  (     0          1         -1      )

 cart.    s(35) = (  0.0000000  0.0000000 -1.0000000 )
                  (  0.0000000 -1.0000000  0.0000000 )
                  (  1.0000000  0.0000000  0.0000000 )


      isym = 36     inv.  90 deg rotation - cart. axis [0,-1,0]  

 cryst.   s(36) = (    -1          1          0      )
                  (    -1          0          1      )
                  (    -1          0          0      )

 cart.    s(36) = (  0.0000000  0.0000000  1.0000000 )
                  (  0.0000000 -1.0000000  0.0000000 )
                  ( -1.0000000  0.0000000  0.0000000 )


      isym = 37     inv. 180 deg rotation - cart. axis [0,1,1]   

 cryst.   s(37) = (    -1          0          0      )
                  (    -1          1          0      )
                  (    -1          0          1      )

 cart.    s(37) = (  1.0000000  0.0000000  0.0000000 )
                  (  0.0000000  0.0000000 -1.0000000 )
                  (  0.0000000 -1.0000000  0.0000000 )


      isym = 38     inv. 180 deg rotation - cart. axis [0,1,-1]  

 cryst.   s(38) = (     1          0          0      )
                  (     0          0          1      )
                  (     0          1          0      )

 cart.    s(38) = (  1.0000000  0.0000000  0.0000000 )
                  (  0.0000000  0.0000000  1.0000000 )
                  (  0.0000000  1.0000000  0.0000000 )


      isym = 39     inv.  90 deg rotation - cart. axis [-1,0,0]  

 cryst.   s(39) = (     0          1         -1      )
                  (     0          0         -1      )
                  (     1          0         -1      )

 cart.    s(39) = ( -1.0000000  0.0000000  0.0000000 )
                  (  0.0000000  0.0000000 -1.0000000 )
                  (  0.0000000  1.0000000  0.0000000 )


      isym = 40     inv.  90 deg rotation - cart. axis [1,0,0]   

 cryst.   s(40) = (     0         -1          1      )
                  (     1         -1          0      )
                  (     0         -1          0      )

 cart.    s(40) = ( -1.0000000  0.0000000  0.0000000 )
                  (  0.0000000  0.0000000  1.0000000 )
                  (  0.0000000 -1.0000000  0.0000000 )


      isym = 41     inv. 120 deg rotation - cart. axis [-1,-1,-1]

 cryst.   s(41) = (     0          0         -1      )
                  (    -1          0          0      )
                  (     0         -1          0      )

 cart.    s(41) = (  0.0000000 -1.0000000  0.0000000 )
                  (  0.0000000  0.0000000 -1.0000000 )
                  ( -1.0000000  0.0000000  0.0000000 )


      isym = 42     inv. 120 deg rotation - cart. axis [-1,1,1]  

 cryst.   s(42) = (    -1          1          0      )
                  (     0          1         -1      )
                  (     0          1          0      )

 cart.    s(42) = (  0.0000000  1.0000000  0.0000000 )
                  (  0.0000000  0.0000000 -1.0000000 )
                  (  1.0000000  0.0000000  0.0000000 )


      isym = 43     inv. 120 deg rotation - cart. axis [1,1,-1]  

 cryst.   s(43) = (     1         -1          0      )
                  (     1          0          0      )
                  (     1          0         -1      )

 cart.    s(43) = (  0.0000000 -1.0000000  0.0000000 )
                  (  0.0000000  0.0000000  1.0000000 )
                  (  1.0000000  0.0000000  0.0000000 )


      isym = 44     inv. 120 deg rotation - cart. axis [1,-1,1]  

 cryst.   s(44) = (     0          0          1      )
                  (     0         -1          1      )
                  (    -1          0          1      )

 cart.    s(44) = (  0.0000000  1.0000000  0.0000000 )
                  (  0.0000000  0.0000000  1.0000000 )
                  ( -1.0000000  0.0000000  0.0000000 )


      isym = 45     inv. 120 deg rotation - cart. axis [1,1,1]   

 cryst.   s(45) = (     0         -1          0      )
                  (     0          0         -1      )
                  (    -1          0          0      )

 cart.    s(45) = (  0.0000000  0.0000000 -1.0000000 )
                  ( -1.0000000  0.0000000  0.0000000 )
                  (  0.0000000 -1.0000000  0.0000000 )


      isym = 46     inv. 120 deg rotation - cart. axis [-1,1,-1] 

 cryst.   s(46) = (     1          0         -1      )
                  (     1         -1          0      )
                  (     1          0          0      )

 cart.    s(46) = (  0.0000000  0.0000000 -1.0000000 )
                  (  1.0000000  0.0000000  0.0000000 )
                  (  0.0000000  1.0000000  0.0000000 )


      isym = 47     inv. 120 deg rotation - cart. axis [1,-1,-1] 

 cryst.   s(47) = (    -1          0          1      )
                  (     0          0          1      )
                  (     0         -1          1      )

 cart.    s(47) = (  0.0000000  0.0000000  1.0000000 )
                  (  1.0000000  0.0000000  0.0000000 )
                  (  0.0000000 -1.0000000  0.0000000 )


      isym = 48     inv. 120 deg rotation - cart. axis [-1,-1,1] 

 cryst.   s(48) = (     0          1          0      )
                  (    -1          1          0      )
                  (     0          1         -1      )

 cart.    s(48) = (  0.0000000  0.0000000  1.0000000 )
                  ( -1.0000000  0.0000000  0.0000000 )
                  (  0.0000000  1.0000000  0.0000000 )


   Cartesian axes

     site n.     atom                  positions (alat units)
         1           Rh  tau(   1) = (   0.0000000   0.0000000   0.0000000  )

   Crystallographic axes

     site n.     atom                  positions (cryst. coord.)
         1           Rh  tau(   1) = (  0.0000000  0.0000000  0.0000000  )

     number of k points=    50  gaussian smearing, width (Ry)=  0.0010
                       cart. coord. in units 2pi/alat
        k(    1) = (   0.3535534   0.7071068   0.0000000), wk =   0.0400000
        k(    2) = (   0.3535534   0.6678231   0.0392837), wk =   0.0400000
        k(    3) = (   0.3535534   0.6285394   0.0785674), wk =   0.0400000
        k(    4) = (   0.3535534   0.5892557   0.1178511), wk =   0.0400000
        k(    5) = (   0.3535534   0.5499719   0.1571348), wk =   0.0400000
        k(    6) = (   0.3535534   0.5106882   0.1964186), wk =   0.0400000
        k(    7) = (   0.3535534   0.4714045   0.2357023), wk =   0.0400000
        k(    8) = (   0.3535534   0.4321208   0.2749860), wk =   0.0400000
        k(    9) = (   0.3535534   0.3928371   0.3142697), wk =   0.0400000
        k(   10) = (   0.3535534   0.3535534   0.3535534), wk =   0.0400000
        k(   11) = (   0.3240906   0.3240906   0.3240906), wk =   0.0400000
        k(   12) = (   0.2946278   0.2946278   0.2946278), wk =   0.0400000
        k(   13) = (   0.2651650   0.2651650   0.2651650), wk =   0.0400000
        k(   14) = (   0.2357023   0.2357023   0.2357023), wk =   0.0400000
        k(   15) = (   0.2062395   0.2062395   0.2062395), wk =   0.0400000
        k(   16) = (   0.1767767   0.1767767   0.1767767), wk =   0.0400000
        k(   17) = (   0.1473139   0.1473139   0.1473139), wk =   0.0400000
        k(   18) = (   0.1178511   0.1178511   0.1178511), wk =   0.0400000
        k(   19) = (   0.0883883   0.0883883   0.0883883), wk =   0.0400000
        k(   20) = (   0.0589256   0.0589256   0.0589256), wk =   0.0400000
        k(   21) = (   0.0294628   0.0294628   0.0294628), wk =   0.0400000
        k(   22) = (   0.0000000   0.0000000   0.0000000), wk =   0.0400000
        k(   23) = (   0.0000000   0.0471405   0.0000000), wk =   0.0400000
        k(   24) = (   0.0000000   0.0942809   0.0000000), wk =   0.0400000
        k(   25) = (   0.0000000   0.1414214   0.0000000), wk =   0.0400000
        k(   26) = (   0.0000000   0.1885618   0.0000000), wk =   0.0400000
        k(   27) = (   0.0000000   0.2357023   0.0000000), wk =   0.0400000
        k(   28) = (   0.0000000   0.2828427   0.0000000), wk =   0.0400000
        k(   29) = (   0.0000000   0.3299832   0.0000000), wk =   0.0400000
        k(   30) = (   0.0000000   0.3771236   0.0000000), wk =   0.0400000
        k(   31) = (   0.0000000   0.4242641   0.0000000), wk =   0.0400000
        k(   32) = (   0.0000000   0.4714045   0.0000000), wk =   0.0400000
        k(   33) = (   0.0000000   0.5185450   0.0000000), wk =   0.0400000
        k(   34) = (   0.0000000   0.5656854   0.0000000), wk =   0.0400000
        k(   35) = (   0.0000000   0.6128259   0.0000000), wk =   0.0400000
        k(   36) = (   0.0000000   0.6599663   0.0000000), wk =   0.0400000
        k(   37) = (   0.0000000   0.7071068   0.0000000), wk =   0.0400000
        k(   38) = (   0.0505076   0.7071068   0.0000000), wk =   0.0400000
        k(   39) = (   0.1010153   0.7071068   0.0000000), wk =   0.0400000
        k(   40) = (   0.1515229   0.7071068   0.0000000), wk =   0.0400000
        k(   41) = (   0.2020305   0.7071068  -0.0000000), wk =   0.0400000
        k(   42) = (   0.2525381   0.7071068  -0.0000000), wk =   0.0400000
        k(   43) = (   0.3030458   0.7071068   0.0000000), wk =   0.0400000
        k(   44) = (   0.3535534   0.7071068   0.0000000), wk =   0.0400000
        k(   45) = (   0.3830162   0.6776440   0.0000000), wk =   0.0400000
        k(   46) = (   0.4124790   0.6481812   0.0000000), wk =   0.0400000
        k(   47) = (   0.4419417   0.6187184   0.0000000), wk =   0.0400000
        k(   48) = (   0.4714045   0.5892557   0.0000000), wk =   0.0400000
        k(   49) = (   0.5008673   0.5597929   0.0000000), wk =   0.0400000
        k(   50) = (   0.5303301   0.5303301   0.0000000), wk =   0.0400000

                       cryst. coord.
        k(    1) = (   0.5000000   0.2500000   0.7500000), wk =   0.0400000
        k(    2) = (   0.5000000   0.2777778   0.7222222), wk =   0.0400000
        k(    3) = (   0.5000000   0.3055556   0.6944444), wk =   0.0400000
        k(    4) = (   0.5000000   0.3333333   0.6666667), wk =   0.0400000
        k(    5) = (   0.5000000   0.3611111   0.6388889), wk =   0.0400000
        k(    6) = (   0.5000000   0.3888889   0.6111111), wk =   0.0400000
        k(    7) = (   0.5000000   0.4166667   0.5833333), wk =   0.0400000
        k(    8) = (   0.5000000   0.4444444   0.5555556), wk =   0.0400000
        k(    9) = (   0.5000000   0.4722222   0.5277778), wk =   0.0400000
        k(   10) = (   0.5000000   0.5000000   0.5000000), wk =   0.0400000
        k(   11) = (   0.4583333   0.4583333   0.4583333), wk =   0.0400000
        k(   12) = (   0.4166667   0.4166667   0.4166667), wk =   0.0400000
        k(   13) = (   0.3750000   0.3750000   0.3750000), wk =   0.0400000
        k(   14) = (   0.3333333   0.3333333   0.3333333), wk =   0.0400000
        k(   15) = (   0.2916667   0.2916667   0.2916667), wk =   0.0400000
        k(   16) = (   0.2500000   0.2500000   0.2500000), wk =   0.0400000
        k(   17) = (   0.2083333   0.2083333   0.2083333), wk =   0.0400000
        k(   18) = (   0.1666667   0.1666667   0.1666667), wk =   0.0400000
        k(   19) = (   0.1250000   0.1250000   0.1250000), wk =   0.0400000
        k(   20) = (   0.0833333   0.0833333   0.0833333), wk =   0.0400000
        k(   21) = (   0.0416667   0.0416667   0.0416667), wk =   0.0400000
        k(   22) = (   0.0000000   0.0000000   0.0000000), wk =   0.0400000
        k(   23) = (   0.0333333   0.0000000   0.0333333), wk =   0.0400000
        k(   24) = (   0.0666667   0.0000000   0.0666667), wk =   0.0400000
        k(   25) = (   0.1000000   0.0000000   0.1000000), wk =   0.0400000
        k(   26) = (   0.1333333   0.0000000   0.1333333), wk =   0.0400000
        k(   27) = (   0.1666667   0.0000000   0.1666667), wk =   0.0400000
        k(   28) = (   0.2000000   0.0000000   0.2000000), wk =   0.0400000
        k(   29) = (   0.2333333   0.0000000   0.2333333), wk =   0.0400000
        k(   30) = (   0.2666667   0.0000000   0.2666667), wk =   0.0400000
        k(   31) = (   0.3000000   0.0000000   0.3000000), wk =   0.0400000
        k(   32) = (   0.3333333   0.0000000   0.3333333), wk =   0.0400000
        k(   33) = (   0.3666667   0.0000000   0.3666667), wk =   0.0400000
        k(   34) = (   0.4000000   0.0000000   0.4000000), wk =   0.0400000
        k(   35) = (   0.4333333   0.0000000   0.4333333), wk =   0.0400000
        k(   36) = (   0.4666667   0.0000000   0.4666667), wk =   0.0400000
        k(   37) = (   0.5000000   0.0000000   0.5000000), wk =   0.0400000
        k(   38) = (   0.5000000   0.0357143   0.5357143), wk =   0.0400000
        k(   39) = (   0.5000000   0.0714286   0.5714286), wk =   0.0400000
        k(   40) = (   0.5000000   0.1071429   0.6071429), wk =   0.0400000
        k(   41) = (   0.5000000   0.1428571   0.6428571), wk =   0.0400000
        k(   42) = (   0.5000000   0.1785714   0.6785714), wk =   0.0400000
        k(   43) = (   0.5000000   0.2142857   0.7142857), wk =   0.0400000
        k(   44) = (   0.5000000   0.2500000   0.7500000), wk =   0.0400000
        k(   45) = (   0.4791667   0.2708333   0.7500000), wk =   0.0400000
        k(   46) = (   0.4583333   0.2916667   0.7500000), wk =   0.0400000
        k(   47) = (   0.4375000   0.3125000   0.7500000), wk =   0.0400000
        k(   48) = (   0.4166667   0.3333333   0.7500000), wk =   0.0400000
        k(   49) = (   0.3958333   0.3541667   0.7500000), wk =   0.0400000
        k(   50) = (   0.3750000   0.3750000   0.7500000), wk =   0.0400000

     Dense  grid:     4477 G-vectors     FFT dimensions: (  24,  24,  24)

     Smooth grid:     3143 G-vectors     FFT dimensions: (  24,  24,  24)

     Estimated max dynamical RAM per process >       5.96Mb

     The potential is recalculated from file :
     ./pwscf.save/charge-density.dat


     negative rho (up, down):  5.916E-02 0.000E+00
     Starting wfc are   12 randomized atomic wfcs

     Band Structure Calculation
     Davidson diagonalization with overlap

     Computing kpt #:     1
     total cpu time spent up to now is        0.8 secs

     Computing kpt #:     2
     total cpu time spent up to now is        0.9 secs

     Computing kpt #:     3
     total cpu time spent up to now is        1.0 secs

     Computing kpt #:     4
     total cpu time spent up to now is        1.1 secs

     Computing kpt #:     5
     total cpu time spent up to now is        1.2 secs

     Computing kpt #:     6
     total cpu time spent up to now is        1.4 secs

     Computing kpt #:     7
     total cpu time spent up to now is        1.5 secs

     Computing kpt #:     8
     total cpu time spent up to now is        1.7 secs

     Computing kpt #:     9
     total cpu time spent up to now is        1.8 secs

     Computing kpt #:    10
     total cpu time spent up to now is        2.0 secs

     Computing kpt #:    11
     total cpu time spent up to now is        2.1 secs

     Computing kpt #:    12
     total cpu time spent up to now is        2.3 secs

     Computing kpt #:    13
     total cpu time spent up to now is        2.4 secs

     Computing kpt #:    14
     total cpu time spent up to now is        2.6 secs

     Computing kpt #:    15
     total cpu time spent up to now is        2.7 secs

     Computing kpt #:    16
     total cpu time spent up to now is        2.9 secs

     Computing kpt #:    17
     total cpu time spent up to now is        3.0 secs

     Computing kpt #:    18
     total cpu time spent up to now is        3.2 secs

     Computing kpt #:    19
     total cpu time spent up to now is        3.3 secs

     Computing kpt #:    20
     total cpu time spent up to now is        3.5 secs

     Computing kpt #:    21
     total cpu time spent up to now is        3.7 secs

     Computing kpt #:    22
     total cpu time spent up to now is        3.8 secs

     Computing kpt #:    23
     total cpu time spent up to now is        4.0 secs

     Computing kpt #:    24
     total cpu time spent up to now is        4.2 secs

     Computing kpt #:    25
     total cpu time spent up to now is        4.3 secs

     Computing kpt #:    26
     total cpu time spent up to now is        4.5 secs

     Computing kpt #:    27
     total cpu time spent up to now is        4.7 secs

     Computing kpt #:    28
     total cpu time spent up to now is        4.8 secs

     Computing kpt #:    29
     total cpu time spent up to now is        5.0 secs

     Computing kpt #:    30
     total cpu time spent up to now is        5.1 secs

     Computing kpt #:    31
     total cpu time spent up to now is        5.3 secs

     Computing kpt #:    32
     total cpu time spent up to now is        5.4 secs

     Computing kpt #:    33
     total cpu time spent up to now is        5.6 secs

     Computing kpt #:    34
     total cpu time spent up to now is        5.7 secs

     Computing kpt #:    35
     total cpu time spent up to now is        5.8 secs

     Computing kpt #:    36
     total cpu time spent up to now is        6.0 secs

     Computing kpt #:    37
     total cpu time spent up to now is        6.1 secs

     Computing kpt #:    38
     total cpu time spent up to now is        6.2 secs

     Computing kpt #:    39
     total cpu time spent up to now is        6.4 secs

     Computing kpt #:    40
     total cpu time spent up to now is        6.5 secs

     Computing kpt #:    41
     total cpu time spent up to now is        6.6 secs

     Computing kpt #:    42
     total cpu time spent up to now is        6.8 secs

     Computing kpt #:    43
     total cpu time spent up to now is        6.9 secs

     Computing kpt #:    44
     total cpu time spent up to now is        7.0 secs

     Computing kpt #:    45
     total cpu time spent up to now is        7.1 secs

     Computing kpt #:    46
     total cpu time spent up to now is        7.3 secs

     Computing kpt #:    47
     total cpu time spent up to now is        7.4 secs

     Computing kpt #:    48
     total cpu time spent up to now is        7.6 secs

     Computing kpt #:    49
     total cpu time spent up to now is        7.7 secs

     Computing kpt #:    50
     total cpu time spent up to now is        7.8 secs

     ethr =  6.67E-10,  avg # of iterations = 11.2

     total cpu time spent up to now is        7.8 secs

     End of band structure calculation

          k = 0.3536 0.7071 0.0000 (   396 PWs)   bands (ev):

   -25.4425 -25.4425 -25.2371  16.3875  17.5984  17.5984  20.2182  22.4008
    31.0451  31.0451  32.7402  34.0761

          k = 0.3536 0.6678 0.0393 (   400 PWs)   bands (ev):

   -25.4562 -25.4314 -25.2258  16.4371  17.5164  17.6552  20.2218  22.2974
    30.5939  30.7110  33.3541  34.5177

          k = 0.3536 0.6285 0.0786 (   398 PWs)   bands (ev):

   -25.4895 -25.3989 -25.1990  16.5825  17.2917  17.8258  20.1836  22.0586
    29.6374  30.2641  34.5926  35.4353

          k = 0.3536 0.5893 0.1179 (   400 PWs)   bands (ev):

   -25.5311 -25.3489 -25.1675  16.8113  16.9690  18.1085  19.9945  21.8517
    28.5336  29.9871  36.0513  36.4328

          k = 0.3536 0.5500 0.1571 (   394 PWs)   bands (ev):

   -25.5738 -25.2871 -25.1370  16.5927  17.1033  18.5022  19.6268  21.7840
    27.3930  29.8702  37.3158  37.5924

          k = 0.3536 0.5107 0.1964 (   390 PWs)   bands (ev):

   -25.6133 -25.2208 -25.1105  16.2015  17.4267  19.0061  19.1894  21.8152
    26.2549  29.8595  37.8862  39.1290

          k = 0.3536 0.4714 0.2357 (   396 PWs)   bands (ev):

   -25.6470 -25.1584 -25.0894  15.8354  17.7428  18.7931  19.6182  21.8768
    25.1381  29.9042  37.9863  40.5860

          k = 0.3536 0.4321 0.2750 (   396 PWs)   bands (ev):

   -25.6725 -25.1069 -25.0741  15.5358  18.0097  18.4950  20.3352  21.9340
    24.0575  29.9643  37.7499  41.8697

          k = 0.3536 0.3928 0.3143 (   400 PWs)   bands (ev):

   -25.6884 -25.0734 -25.0648  15.3393  18.1888  18.3128  21.1479  21.9716
    23.0252  30.0116  37.4822  42.8177

          k = 0.3536 0.3536 0.3536 (   392 PWs)   bands (ev):

   -25.6937 -25.0615 -25.0615  15.2711  18.2525  18.2525  21.9849  21.9849
    22.1157  30.0295  37.3744  43.1833

          k = 0.3241 0.3241 0.3241 (   395 PWs)   bands (ev):

   -25.6817 -25.0598 -25.0598  15.2879  18.2713  18.2713  21.8428  21.9240
    21.9240  30.3741  37.4534  43.3335

          k = 0.2946 0.2946 0.2946 (   395 PWs)   bands (ev):

   -25.6462 -25.0548 -25.0548  15.3338  18.3261  18.3261  21.1534  21.7515
    21.7515  31.2773  37.6874  43.7711

          k = 0.2652 0.2652 0.2652 (   401 PWs)   bands (ev):

   -25.5896 -25.0469 -25.0469  15.3924  18.4102  18.4102  20.2803  21.4923
    21.4923  32.5028  38.0633  44.4547

          k = 0.2357 0.2357 0.2357 (   401 PWs)   bands (ev):

   -25.5154 -25.0365 -25.0365  15.4320  18.5130  18.5130  19.4084  21.1824
    21.1824  33.8729  38.5452  45.2960

          k = 0.2062 0.2062 0.2062 (   395 PWs)   bands (ev):

   -25.4280 -25.0242 -25.0242  15.3942  18.6157  18.6157  18.6764  20.8663
    20.8663  35.2768  39.0472  46.0366

          k = 0.1768 0.1768 0.1768 (   392 PWs)   bands (ev):

   -25.3335 -25.0111 -25.0111  15.2069  18.1953  18.6905  18.6905  20.5911
    20.5911  36.6546  39.4132  46.0612

          k = 0.1473 0.1473 0.1473 (   386 PWs)   bands (ev):

   -25.2381 -24.9979 -24.9979  14.8558  17.9953  18.7058  18.7058  20.4037
    20.4037  37.9781  39.4914  45.5092

          k = 0.1179 0.1179 0.1179 (   387 PWs)   bands (ev):

   -25.1485 -24.9856 -24.9856  14.4242  17.9963  18.6476  18.6476  20.3240
    20.3240  38.9792  39.5532  44.8632

          k = 0.0884 0.0884 0.0884 (   384 PWs)   bands (ev):

   -25.0707 -24.9750 -24.9750  14.0126  18.0928  18.5415  18.5415  20.3287
    20.3287  38.7272  40.6921  44.2829

          k = 0.0589 0.0589 0.0589 (   390 PWs)   bands (ev):

   -25.0108 -24.9670 -24.9670  13.6861  18.2074  18.4316  18.4316  20.3702
    20.3702  38.3398  41.9273  43.8331

          k = 0.0295 0.0295 0.0295 (   405 PWs)   bands (ev):

   -24.9732 -24.9621 -24.9621  13.4793  18.2929  18.3526  18.3526  20.4096
    20.4096  38.0627  42.9828  43.5500

          k = 0.0000 0.0000 0.0000 (   411 PWs)   bands (ev):

   -24.9604 -24.9604 -24.9604  13.4087  18.3242  18.3242  18.3242  20.4252
    20.4252  37.9637  43.4534  43.4534

          k = 0.0000 0.0471 0.0000 (   403 PWs)   bands (ev):

   -24.9683 -24.9633 -24.9633  13.4691  18.2839  18.3556  18.3556  20.3826
    20.4408  38.0490  43.1947  43.4539

          k = 0.0000 0.0943 0.0000 (   391 PWs)   bands (ev):

   -24.9918 -24.9720 -24.9720  13.6476  18.1667  18.4485  18.4485  20.2593
    20.4860  38.2996  42.6150  43.4376

          k = 0.0000 0.1414 0.0000 (   391 PWs)   bands (ev):

   -25.0303 -24.9862 -24.9862  13.9363  17.9820  18.6006  18.6006  20.0670
    20.5593  38.6997  41.9789  43.3498

          k = 0.0000 0.1886 0.0000 (   391 PWs)   bands (ev):

   -25.0812 -25.0052 -25.0052  14.3189  17.7438  18.8112  18.8112  19.8319
    20.6586  39.2254  41.4094  43.1033

          k = 0.0000 0.2357 0.0000 (   399 PWs)   bands (ev):

   -25.1423 -25.0282 -25.0282  14.7666  17.4683  19.0765  19.0765  19.5939
    20.7804  39.8463  40.9394  42.6144

          k = 0.0000 0.2828 0.0000 (   399 PWs)   bands (ev):

   -25.2101 -25.0540 -25.0540  15.2273  17.1720  19.3934  19.3934  19.4180
    20.9205  40.5282  40.5541  41.8661

          k = 0.0000 0.3300 0.0000 (   399 PWs)   bands (ev):

   -25.2815 -25.0815 -25.0815  15.6155  16.8701  19.4010  19.7555  19.7555
    21.0737  40.1998  40.9213  40.9213

          k = 0.0000 0.3771 0.0000 (   399 PWs)   bands (ev):

   -25.3539 -25.1095 -25.1095  15.8329  16.5766  19.6497  20.1538  20.1538
    21.2344  39.7781  39.8720  39.8720

          k = 0.0000 0.4243 0.0000 (   391 PWs)   bands (ev):

   -25.4234 -25.1367 -25.1367  15.8491  16.3024  20.1995  20.5773  20.5773
    21.3945  38.8009  38.8009  39.1560

          k = 0.0000 0.4714 0.0000 (   387 PWs)   bands (ev):

   -25.4872 -25.1623 -25.1623  15.7259  16.0557  20.9840  21.0104  21.0104
    21.5471  37.7710  37.7710  38.2434

          k = 0.0000 0.5185 0.0000 (   395 PWs)   bands (ev):

   -25.5433 -25.1850 -25.1850  15.5445  15.8444  21.4304  21.4304  21.6849
    21.9035  36.8334  36.8334  37.0967

          k = 0.0000 0.5657 0.0000 (   396 PWs)   bands (ev):

   -25.5891 -25.2037 -25.2037  15.3625  15.6748  21.8011  21.8118  21.8118
    22.8619  35.8771  36.0353  36.0353

          k = 0.0000 0.6128 0.0000 (   392 PWs)   bands (ev):

   -25.6229 -25.2176 -25.2176  15.2143  15.5509  21.8892  22.1218  22.1218
    23.7479  34.7661  35.4209  35.4209

          k = 0.0000 0.6600 0.0000 (   392 PWs)   bands (ev):

   -25.6437 -25.2262 -25.2262  15.1188  15.4754  21.9442  22.3257  22.3257
    24.4079  33.9581  35.0315  35.0315

          k = 0.0000 0.7071 0.0000 (   388 PWs)   bands (ev):

   -25.6506 -25.2291 -25.2291  15.0864  15.4500  21.9629  22.3973  22.3973
    24.6594  33.6559  34.8978  34.8978

          k = 0.0505 0.7071 0.0000 (   392 PWs)   bands (ev):

   -25.6454 -25.2345 -25.2296  15.1352  15.4950  21.8935  22.0262  22.3974
    25.0677  33.6121  34.8124  34.8223

          k = 0.1010 0.7071 0.0000 (   400 PWs)   bands (ev):

   -25.6302 -25.2506 -25.2309  15.2774  15.6302  21.2828  21.6918  22.3979
    25.9218  33.4839  34.5563  34.6429

          k = 0.1515 0.7071 0.0000 (   404 PWs)   bands (ev):

   -25.6057 -25.2763 -25.2324  15.4998  15.8547  20.4704  21.3827  22.3985
    26.9148  33.2912  34.1319  34.4467

          k = 0.2020 0.7071-0.0000 (   394 PWs)   bands (ev):

   -25.5728 -25.3102 -25.2339  15.7775  16.1674  19.6743  21.0068  22.3995
    27.9567  33.0793  33.5485  34.2853

          k = 0.2525 0.7071-0.0000 (   398 PWs)   bands (ev):

   -25.5335 -25.3507 -25.2356  16.0658  16.5642  18.9213  20.6272  22.3997
    29.0089  32.8231  32.8982  34.1695

          k = 0.3030 0.7071 0.0000 (   396 PWs)   bands (ev):

   -25.4893 -25.3955 -25.2367  16.2967  17.0427  18.2267  20.3321  22.4006
    30.0465  31.9796  32.7805  34.0996

          k = 0.3536 0.7071 0.0000 (   396 PWs)   bands (ev):

   -25.4425 -25.4425 -25.2371  16.3875  17.5984  17.5984  20.2182  22.4008
    31.0451  31.0451  32.7402  34.0761

          k = 0.3830 0.6776 0.0000 (   396 PWs)   bands (ev):

   -25.4685 -25.4180 -25.2333  16.3673  17.2636  17.9561  20.2574  22.3700
    30.5175  31.2493  32.9556  34.2618

          k = 0.4125 0.6482 0.0000 (   399 PWs)   bands (ev):

   -25.4908 -25.4013 -25.2219  16.2979  16.9840  18.3271  20.3568  22.2792
    30.0740  30.9886  33.2386  34.9156

          k = 0.4419 0.6187 0.0000 (   396 PWs)   bands (ev):

   -25.5087 -25.3923 -25.2056  16.1762  16.7977  18.6908  20.4852  22.1408
    29.7233  30.6398  33.3655  35.8718

          k = 0.4714 0.5893 0.0000 (   390 PWs)   bands (ev):

   -25.5219 -25.3884 -25.1893  16.0370  16.6975  19.0146  20.6092  21.9802
    29.4708  30.3373  33.4246  36.8713

          k = 0.5009 0.5598 0.0000 (   397 PWs)   bands (ev):

   -25.5301 -25.3873 -25.1779  15.9322  16.6500  19.2497  20.6975  21.8422
    29.3187  30.1363  33.4535  37.7038

          k = 0.5303 0.5303 0.0000 (   399 PWs)   bands (ev):

   -25.5329 -25.3871 -25.1739  15.8941  16.6358  19.3381  20.7297  21.7864
    29.2681  30.0661  33.4624  38.0579

     Writing output data file pwscf.save

     init_run     :      0.61s CPU      0.49s WALL (       1 calls)
     electrons    :     14.23s CPU      7.17s WALL (       1 calls)

     Called by init_run:
     wfcinit      :      0.00s CPU      0.00s WALL (       1 calls)
     wfcinit:atom :      0.00s CPU      0.02s WALL (      50 calls)
     wfcinit:wfcr :      1.25s CPU      0.66s WALL (      50 calls)
     potinit      :      0.00s CPU      0.01s WALL (       1 calls)

     Called by electrons:
     c_bands      :     14.23s CPU      7.17s WALL (       1 calls)
     v_of_rho     :      0.00s CPU      0.01s WALL (       1 calls)
     v_h          :      0.00s CPU      0.00s WALL (       1 calls)
     v_xc         :      0.00s CPU      0.01s WALL (       1 calls)
     newd         :      0.02s CPU      0.04s WALL (       1 calls)

     Called by c_bands:
     init_us_2    :      0.02s CPU      0.02s WALL (      50 calls)
     cegterg      :     12.59s CPU      6.33s WALL (      50 calls)

     Called by sum_band:

     Called by *egterg:
     h_psi        :     10.73s CPU      5.42s WALL (     661 calls)
     s_psi        :      0.19s CPU      0.07s WALL (     661 calls)
     g_psi        :      0.05s CPU      0.02s WALL (     561 calls)
     cdiaghg      :      2.09s CPU      1.03s WALL (     611 calls)
     cegterg:over :      0.30s CPU      0.15s WALL (     561 calls)
     cegterg:upda :      0.23s CPU      0.12s WALL (     561 calls)
     cegterg:last :      0.22s CPU      0.08s WALL (     140 calls)

     Called by h_psi:
     h_psi:pot    :     10.69s CPU      5.39s WALL (     661 calls)
     h_psi:calbec :      0.28s CPU      0.09s WALL (     661 calls)
     vloc_psi     :     10.16s CPU      5.21s WALL (     661 calls)
     add_vuspsi   :      0.17s CPU      0.08s WALL (     661 calls)

     General routines
     calbec       :      0.27s CPU      0.08s WALL (     661 calls)
     fft          :      0.02s CPU      0.01s WALL (      13 calls)
     ffts         :      0.00s CPU      0.00s WALL (       1 calls)
     fftw         :      9.42s CPU      4.81s WALL (   10316 calls)
     interpolate  :      0.00s CPU      0.00s WALL (       1 calls)
     davcio       :      0.00s CPU      0.00s WALL (      50 calls)

     Parallel routines
     fft_scatter  :      0.31s CPU      0.22s WALL (   10330 calls)

     PWSCF        :    15.38s CPU         8.10s WALL


   This run was terminated on:  19: 1:48  25Feb2021            

=------------------------------------------------------------------------------=
   JOB DONE.
=------------------------------------------------------------------------------=
