
     Program PWSCF v.6.0 (svn rev. 13079) starts on 25Feb2021 at 12: 2:25 

     This program is part of the open-source Quantum ESPRESSO suite
     for quantum simulation of materials; please cite
         "P. Giannozzi et al., J. Phys.:Condens. Matter 21 395502 (2009);
          URL http://www.quantum-espresso.org", 
     in publications or presentations arising from this work. More details at
     http://www.quantum-espresso.org/quote

     Parallel version (MPI), running on     1 processors
     Reading input from espresso.pwi
Warning: card &IONS ignored
Warning: card / ignored
Warning: card &CELL ignored
Warning: card / ignored

     Current dimensions of program PWSCF are:
     Max number of different atomic species (ntypx) = 10
     Max number of k-points (npk) =  40000
     Max angular momentum in pseudopotentials (lmaxx) =  3
     Message from routine input:
     WARNING: "startingwfc" set to atomic+random may spoil restart

     Atomic positions and unit cell read from directory:
     ./pwscf.save/


     IMPORTANT: XC functional enforced from input :
     Exchange-correlation      = PBE ( 1  4  3  4 0 0)
     Any further DFT definition will be discarded
     Please, verify this is what you really want


     Subspace diagonalization in iterative solution of the eigenvalue problem:
     a serial algorithm will be used


     G-vector sticks info
     --------------------
     sticks:   dense  smooth     PW     G-vecs:    dense   smooth      PW
     Sum         399     321    103                 5089     3589     683



     bravais-lattice index     =            0
     lattice parameter (alat)  =       5.1682  a.u.
     unit-cell volume          =     106.2681 (a.u.)^3
     number of atoms/cell      =            1
     number of atomic types    =            1
     number of electrons       =         6.00
     number of Kohn-Sham states=            7
     kinetic-energy cutoff     =      40.0000  Ry
     charge density cutoff     =     200.0000  Ry
     Exchange-correlation      = PBE ( 1  4  3  4 0 0)

     celldm(1)=   5.168228  celldm(2)=   0.000000  celldm(3)=   0.000000
     celldm(4)=   0.000000  celldm(5)=   0.000000  celldm(6)=   0.000000

     crystal axes: (cart. coord. in units of alat)
               a(1) = (  -0.577350   0.577350   0.577350 )  
               a(2) = (   0.577350  -0.577350   0.577350 )  
               a(3) = (   0.577350   0.577350  -0.577350 )  

     reciprocal axes: (cart. coord. in units 2 pi/alat)
               b(1) = (  0.000000  0.866025  0.866025 )  
               b(2) = (  0.866025  0.000000  0.866025 )  
               b(3) = (  0.866025  0.866025  0.000000 )  


     PseudoPot. # 1 for S  read from file:
     /home/inukai/tango/tests/1element/qe_fit_v2_S/../pseudo/s_pbe_v1.4.uspp.F.UPF
     MD5 check sum: 88d86576ff6df21479756cfb9bdac1df
     Pseudo is Ultrasoft + core correction, Zval =  6.0
     Generated by new atomic code, or converted to UPF format
     Using radial grid of  907 points,  6 beta functions with: 
                l(1) =   0
                l(2) =   0
                l(3) =   1
                l(4) =   1
                l(5) =   2
                l(6) =   2
     Q(r) pseudized with  8 coefficients,  rinner =    1.300   1.300   1.300
                                                       1.300   1.300

     atomic species   valence    mass     pseudopotential
        S              6.00    32.06000     S ( 1.00)

     48 Sym. Ops., with inversion, found


                                    s                        frac. trans.

      isym =  1     identity                                     

 cryst.   s( 1) = (     1          0          0      )
                  (     0          1          0      )
                  (     0          0          1      )

 cart.    s( 1) = (  1.0000000  0.0000000  0.0000000 )
                  (  0.0000000  1.0000000  0.0000000 )
                  (  0.0000000  0.0000000  1.0000000 )


      isym =  2     180 deg rotation - cart. axis [0,0,1]        

 cryst.   s( 2) = (     0          1          0      )
                  (     1          0          0      )
                  (    -1         -1         -1      )

 cart.    s( 2) = ( -1.0000000  0.0000000  0.0000000 )
                  (  0.0000000 -1.0000000  0.0000000 )
                  (  0.0000000  0.0000000  1.0000000 )


      isym =  3     180 deg rotation - cart. axis [0,1,0]        

 cryst.   s( 3) = (     0          0          1      )
                  (    -1         -1         -1      )
                  (     1          0          0      )

 cart.    s( 3) = ( -1.0000000  0.0000000  0.0000000 )
                  (  0.0000000  1.0000000  0.0000000 )
                  (  0.0000000  0.0000000 -1.0000000 )


      isym =  4     180 deg rotation - cart. axis [1,0,0]        

 cryst.   s( 4) = (    -1         -1         -1      )
                  (     0          0          1      )
                  (     0          1          0      )

 cart.    s( 4) = (  1.0000000  0.0000000  0.0000000 )
                  (  0.0000000 -1.0000000  0.0000000 )
                  (  0.0000000  0.0000000 -1.0000000 )


      isym =  5     180 deg rotation - cart. axis [1,1,0]        

 cryst.   s( 5) = (    -1          0          0      )
                  (     0         -1          0      )
                  (     1          1          1      )

 cart.    s( 5) = (  0.0000000  1.0000000  0.0000000 )
                  (  1.0000000  0.0000000  0.0000000 )
                  (  0.0000000  0.0000000 -1.0000000 )


      isym =  6     180 deg rotation - cart. axis [1,-1,0]       

 cryst.   s( 6) = (     0         -1          0      )
                  (    -1          0          0      )
                  (     0          0         -1      )

 cart.    s( 6) = (  0.0000000 -1.0000000  0.0000000 )
                  ( -1.0000000  0.0000000  0.0000000 )
                  (  0.0000000  0.0000000 -1.0000000 )


      isym =  7      90 deg rotation - cart. axis [0,0,-1]       

 cryst.   s( 7) = (     1          1          1      )
                  (     0          0         -1      )
                  (    -1          0          0      )

 cart.    s( 7) = (  0.0000000  1.0000000  0.0000000 )
                  ( -1.0000000  0.0000000  0.0000000 )
                  (  0.0000000  0.0000000  1.0000000 )


      isym =  8      90 deg rotation - cart. axis [0,0,1]        

 cryst.   s( 8) = (     0          0         -1      )
                  (     1          1          1      )
                  (     0         -1          0      )

 cart.    s( 8) = (  0.0000000 -1.0000000  0.0000000 )
                  (  1.0000000  0.0000000  0.0000000 )
                  (  0.0000000  0.0000000  1.0000000 )


      isym =  9     180 deg rotation - cart. axis [1,0,1]        

 cryst.   s( 9) = (    -1          0          0      )
                  (     1          1          1      )
                  (     0          0         -1      )

 cart.    s( 9) = (  0.0000000  0.0000000  1.0000000 )
                  (  0.0000000 -1.0000000  0.0000000 )
                  (  1.0000000  0.0000000  0.0000000 )


      isym = 10     180 deg rotation - cart. axis [-1,0,1]       

 cryst.   s(10) = (     0          0         -1      )
                  (     0         -1          0      )
                  (    -1          0          0      )

 cart.    s(10) = (  0.0000000  0.0000000 -1.0000000 )
                  (  0.0000000 -1.0000000  0.0000000 )
                  ( -1.0000000  0.0000000  0.0000000 )


      isym = 11      90 deg rotation - cart. axis [0,1,0]        

 cryst.   s(11) = (     1          1          1      )
                  (    -1          0          0      )
                  (     0         -1          0      )

 cart.    s(11) = (  0.0000000  0.0000000  1.0000000 )
                  (  0.0000000  1.0000000  0.0000000 )
                  ( -1.0000000  0.0000000  0.0000000 )


      isym = 12      90 deg rotation - cart. axis [0,-1,0]       

 cryst.   s(12) = (     0         -1          0      )
                  (     0          0         -1      )
                  (     1          1          1      )

 cart.    s(12) = (  0.0000000  0.0000000 -1.0000000 )
                  (  0.0000000  1.0000000  0.0000000 )
                  (  1.0000000  0.0000000  0.0000000 )


      isym = 13     180 deg rotation - cart. axis [0,1,1]        

 cryst.   s(13) = (     1          1          1      )
                  (     0         -1          0      )
                  (     0          0         -1      )

 cart.    s(13) = ( -1.0000000  0.0000000  0.0000000 )
                  (  0.0000000  0.0000000  1.0000000 )
                  (  0.0000000  1.0000000  0.0000000 )


      isym = 14     180 deg rotation - cart. axis [0,1,-1]       

 cryst.   s(14) = (    -1          0          0      )
                  (     0          0         -1      )
                  (     0         -1          0      )

 cart.    s(14) = ( -1.0000000  0.0000000  0.0000000 )
                  (  0.0000000  0.0000000 -1.0000000 )
                  (  0.0000000 -1.0000000  0.0000000 )


      isym = 15      90 deg rotation - cart. axis [-1,0,0]       

 cryst.   s(15) = (     0         -1          0      )
                  (     1          1          1      )
                  (    -1          0          0      )

 cart.    s(15) = (  1.0000000  0.0000000  0.0000000 )
                  (  0.0000000  0.0000000  1.0000000 )
                  (  0.0000000 -1.0000000  0.0000000 )


      isym = 16      90 deg rotation - cart. axis [1,0,0]        

 cryst.   s(16) = (     0          0         -1      )
                  (    -1          0          0      )
                  (     1          1          1      )

 cart.    s(16) = (  1.0000000  0.0000000  0.0000000 )
                  (  0.0000000  0.0000000 -1.0000000 )
                  (  0.0000000  1.0000000  0.0000000 )


      isym = 17     120 deg rotation - cart. axis [-1,-1,-1]     

 cryst.   s(17) = (     0          0          1      )
                  (     1          0          0      )
                  (     0          1          0      )

 cart.    s(17) = (  0.0000000  1.0000000  0.0000000 )
                  (  0.0000000  0.0000000  1.0000000 )
                  (  1.0000000  0.0000000  0.0000000 )


      isym = 18     120 deg rotation - cart. axis [-1,1,1]       

 cryst.   s(18) = (     1          0          0      )
                  (     0          0          1      )
                  (    -1         -1         -1      )

 cart.    s(18) = (  0.0000000 -1.0000000  0.0000000 )
                  (  0.0000000  0.0000000  1.0000000 )
                  ( -1.0000000  0.0000000  0.0000000 )


      isym = 19     120 deg rotation - cart. axis [1,1,-1]       

 cryst.   s(19) = (     0          1          0      )
                  (    -1         -1         -1      )
                  (     0          0          1      )

 cart.    s(19) = (  0.0000000  1.0000000  0.0000000 )
                  (  0.0000000  0.0000000 -1.0000000 )
                  ( -1.0000000  0.0000000  0.0000000 )


      isym = 20     120 deg rotation - cart. axis [1,-1,1]       

 cryst.   s(20) = (    -1         -1         -1      )
                  (     0          1          0      )
                  (     1          0          0      )

 cart.    s(20) = (  0.0000000 -1.0000000  0.0000000 )
                  (  0.0000000  0.0000000 -1.0000000 )
                  (  1.0000000  0.0000000  0.0000000 )


      isym = 21     120 deg rotation - cart. axis [1,1,1]        

 cryst.   s(21) = (     0          1          0      )
                  (     0          0          1      )
                  (     1          0          0      )

 cart.    s(21) = (  0.0000000  0.0000000  1.0000000 )
                  (  1.0000000  0.0000000  0.0000000 )
                  (  0.0000000  1.0000000  0.0000000 )


      isym = 22     120 deg rotation - cart. axis [-1,1,-1]      

 cryst.   s(22) = (     0          0          1      )
                  (     0          1          0      )
                  (    -1         -1         -1      )

 cart.    s(22) = (  0.0000000  0.0000000  1.0000000 )
                  ( -1.0000000  0.0000000  0.0000000 )
                  (  0.0000000 -1.0000000  0.0000000 )


      isym = 23     120 deg rotation - cart. axis [1,-1,-1]      

 cryst.   s(23) = (     1          0          0      )
                  (    -1         -1         -1      )
                  (     0          1          0      )

 cart.    s(23) = (  0.0000000  0.0000000 -1.0000000 )
                  ( -1.0000000  0.0000000  0.0000000 )
                  (  0.0000000  1.0000000  0.0000000 )


      isym = 24     120 deg rotation - cart. axis [-1,-1,1]      

 cryst.   s(24) = (    -1         -1         -1      )
                  (     1          0          0      )
                  (     0          0          1      )

 cart.    s(24) = (  0.0000000  0.0000000 -1.0000000 )
                  (  1.0000000  0.0000000  0.0000000 )
                  (  0.0000000 -1.0000000  0.0000000 )


      isym = 25     inversion                                    

 cryst.   s(25) = (    -1          0          0      )
                  (     0         -1          0      )
                  (     0          0         -1      )

 cart.    s(25) = ( -1.0000000  0.0000000  0.0000000 )
                  (  0.0000000 -1.0000000  0.0000000 )
                  (  0.0000000  0.0000000 -1.0000000 )


      isym = 26     inv. 180 deg rotation - cart. axis [0,0,1]   

 cryst.   s(26) = (     0         -1          0      )
                  (    -1          0          0      )
                  (     1          1          1      )

 cart.    s(26) = (  1.0000000  0.0000000  0.0000000 )
                  (  0.0000000  1.0000000  0.0000000 )
                  (  0.0000000  0.0000000 -1.0000000 )


      isym = 27     inv. 180 deg rotation - cart. axis [0,1,0]   

 cryst.   s(27) = (     0          0         -1      )
                  (     1          1          1      )
                  (    -1          0          0      )

 cart.    s(27) = (  1.0000000  0.0000000  0.0000000 )
                  (  0.0000000 -1.0000000  0.0000000 )
                  (  0.0000000  0.0000000  1.0000000 )


      isym = 28     inv. 180 deg rotation - cart. axis [1,0,0]   

 cryst.   s(28) = (     1          1          1      )
                  (     0          0         -1      )
                  (     0         -1          0      )

 cart.    s(28) = ( -1.0000000  0.0000000  0.0000000 )
                  (  0.0000000  1.0000000  0.0000000 )
                  (  0.0000000  0.0000000  1.0000000 )


      isym = 29     inv. 180 deg rotation - cart. axis [1,1,0]   

 cryst.   s(29) = (     1          0          0      )
                  (     0          1          0      )
                  (    -1         -1         -1      )

 cart.    s(29) = (  0.0000000 -1.0000000  0.0000000 )
                  ( -1.0000000  0.0000000  0.0000000 )
                  (  0.0000000  0.0000000  1.0000000 )


      isym = 30     inv. 180 deg rotation - cart. axis [1,-1,0]  

 cryst.   s(30) = (     0          1          0      )
                  (     1          0          0      )
                  (     0          0          1      )

 cart.    s(30) = (  0.0000000  1.0000000  0.0000000 )
                  (  1.0000000  0.0000000  0.0000000 )
                  (  0.0000000  0.0000000  1.0000000 )


      isym = 31     inv.  90 deg rotation - cart. axis [0,0,-1]  

 cryst.   s(31) = (    -1         -1         -1      )
                  (     0          0          1      )
                  (     1          0          0      )

 cart.    s(31) = (  0.0000000 -1.0000000  0.0000000 )
                  (  1.0000000  0.0000000  0.0000000 )
                  (  0.0000000  0.0000000 -1.0000000 )


      isym = 32     inv.  90 deg rotation - cart. axis [0,0,1]   

 cryst.   s(32) = (     0          0          1      )
                  (    -1         -1         -1      )
                  (     0          1          0      )

 cart.    s(32) = (  0.0000000  1.0000000  0.0000000 )
                  ( -1.0000000  0.0000000  0.0000000 )
                  (  0.0000000  0.0000000 -1.0000000 )


      isym = 33     inv. 180 deg rotation - cart. axis [1,0,1]   

 cryst.   s(33) = (     1          0          0      )
                  (    -1         -1         -1      )
                  (     0          0          1      )

 cart.    s(33) = (  0.0000000  0.0000000 -1.0000000 )
                  (  0.0000000  1.0000000  0.0000000 )
                  ( -1.0000000  0.0000000  0.0000000 )


      isym = 34     inv. 180 deg rotation - cart. axis [-1,0,1]  

 cryst.   s(34) = (     0          0          1      )
                  (     0          1          0      )
                  (     1          0          0      )

 cart.    s(34) = (  0.0000000  0.0000000  1.0000000 )
                  (  0.0000000  1.0000000  0.0000000 )
                  (  1.0000000  0.0000000  0.0000000 )


      isym = 35     inv.  90 deg rotation - cart. axis [0,1,0]   

 cryst.   s(35) = (    -1         -1         -1      )
                  (     1          0          0      )
                  (     0          1          0      )

 cart.    s(35) = (  0.0000000  0.0000000 -1.0000000 )
                  (  0.0000000 -1.0000000  0.0000000 )
                  (  1.0000000  0.0000000  0.0000000 )


      isym = 36     inv.  90 deg rotation - cart. axis [0,-1,0]  

 cryst.   s(36) = (     0          1          0      )
                  (     0          0          1      )
                  (    -1         -1         -1      )

 cart.    s(36) = (  0.0000000  0.0000000  1.0000000 )
                  (  0.0000000 -1.0000000  0.0000000 )
                  ( -1.0000000  0.0000000  0.0000000 )


      isym = 37     inv. 180 deg rotation - cart. axis [0,1,1]   

 cryst.   s(37) = (    -1         -1         -1      )
                  (     0          1          0      )
                  (     0          0          1      )

 cart.    s(37) = (  1.0000000  0.0000000  0.0000000 )
                  (  0.0000000  0.0000000 -1.0000000 )
                  (  0.0000000 -1.0000000  0.0000000 )


      isym = 38     inv. 180 deg rotation - cart. axis [0,1,-1]  

 cryst.   s(38) = (     1          0          0      )
                  (     0          0          1      )
                  (     0          1          0      )

 cart.    s(38) = (  1.0000000  0.0000000  0.0000000 )
                  (  0.0000000  0.0000000  1.0000000 )
                  (  0.0000000  1.0000000  0.0000000 )


      isym = 39     inv.  90 deg rotation - cart. axis [-1,0,0]  

 cryst.   s(39) = (     0          1          0      )
                  (    -1         -1         -1      )
                  (     1          0          0      )

 cart.    s(39) = ( -1.0000000  0.0000000  0.0000000 )
                  (  0.0000000  0.0000000 -1.0000000 )
                  (  0.0000000  1.0000000  0.0000000 )


      isym = 40     inv.  90 deg rotation - cart. axis [1,0,0]   

 cryst.   s(40) = (     0          0          1      )
                  (     1          0          0      )
                  (    -1         -1         -1      )

 cart.    s(40) = ( -1.0000000  0.0000000  0.0000000 )
                  (  0.0000000  0.0000000  1.0000000 )
                  (  0.0000000 -1.0000000  0.0000000 )


      isym = 41     inv. 120 deg rotation - cart. axis [-1,-1,-1]

 cryst.   s(41) = (     0          0         -1      )
                  (    -1          0          0      )
                  (     0         -1          0      )

 cart.    s(41) = (  0.0000000 -1.0000000  0.0000000 )
                  (  0.0000000  0.0000000 -1.0000000 )
                  ( -1.0000000  0.0000000  0.0000000 )


      isym = 42     inv. 120 deg rotation - cart. axis [-1,1,1]  

 cryst.   s(42) = (    -1          0          0      )
                  (     0          0         -1      )
                  (     1          1          1      )

 cart.    s(42) = (  0.0000000  1.0000000  0.0000000 )
                  (  0.0000000  0.0000000 -1.0000000 )
                  (  1.0000000  0.0000000  0.0000000 )


      isym = 43     inv. 120 deg rotation - cart. axis [1,1,-1]  

 cryst.   s(43) = (     0         -1          0      )
                  (     1          1          1      )
                  (     0          0         -1      )

 cart.    s(43) = (  0.0000000 -1.0000000  0.0000000 )
                  (  0.0000000  0.0000000  1.0000000 )
                  (  1.0000000  0.0000000  0.0000000 )


      isym = 44     inv. 120 deg rotation - cart. axis [1,-1,1]  

 cryst.   s(44) = (     1          1          1      )
                  (     0         -1          0      )
                  (    -1          0          0      )

 cart.    s(44) = (  0.0000000  1.0000000  0.0000000 )
                  (  0.0000000  0.0000000  1.0000000 )
                  ( -1.0000000  0.0000000  0.0000000 )


      isym = 45     inv. 120 deg rotation - cart. axis [1,1,1]   

 cryst.   s(45) = (     0         -1          0      )
                  (     0          0         -1      )
                  (    -1          0          0      )

 cart.    s(45) = (  0.0000000  0.0000000 -1.0000000 )
                  ( -1.0000000  0.0000000  0.0000000 )
                  (  0.0000000 -1.0000000  0.0000000 )


      isym = 46     inv. 120 deg rotation - cart. axis [-1,1,-1] 

 cryst.   s(46) = (     0          0         -1      )
                  (     0         -1          0      )
                  (     1          1          1      )

 cart.    s(46) = (  0.0000000  0.0000000 -1.0000000 )
                  (  1.0000000  0.0000000  0.0000000 )
                  (  0.0000000  1.0000000  0.0000000 )


      isym = 47     inv. 120 deg rotation - cart. axis [1,-1,-1] 

 cryst.   s(47) = (    -1          0          0      )
                  (     1          1          1      )
                  (     0         -1          0      )

 cart.    s(47) = (  0.0000000  0.0000000  1.0000000 )
                  (  1.0000000  0.0000000  0.0000000 )
                  (  0.0000000 -1.0000000  0.0000000 )


      isym = 48     inv. 120 deg rotation - cart. axis [-1,-1,1] 

 cryst.   s(48) = (     1          1          1      )
                  (    -1          0          0      )
                  (     0          0         -1      )

 cart.    s(48) = (  0.0000000  0.0000000  1.0000000 )
                  ( -1.0000000  0.0000000  0.0000000 )
                  (  0.0000000  1.0000000  0.0000000 )


   Cartesian axes

     site n.     atom                  positions (alat units)
         1           S   tau(   1) = (   0.0000000   0.0000000   0.0000000  )

   Crystallographic axes

     site n.     atom                  positions (cryst. coord.)
         1           S   tau(   1) = (  0.0000000  0.0000000  0.0000000  )

     number of k points=    50  gaussian smearing, width (Ry)=  0.0010
                       cart. coord. in units 2pi/alat
        k(    1) = (   0.0000000   0.0000000   0.0000000), wk =   0.0400000
        k(    2) = (   0.0000000   0.0618590   0.0000000), wk =   0.0400000
        k(    3) = (   0.0000000   0.1237179   0.0000000), wk =   0.0400000
        k(    4) = (   0.0000000   0.1855769   0.0000000), wk =   0.0400000
        k(    5) = (   0.0000000   0.2474358   0.0000000), wk =   0.0400000
        k(    6) = (   0.0000000   0.3092948   0.0000000), wk =   0.0400000
        k(    7) = (   0.0000000   0.3711537   0.0000000), wk =   0.0400000
        k(    8) = (   0.0000000   0.4330127   0.0000000), wk =   0.0400000
        k(    9) = (   0.0000000   0.4948717   0.0000000), wk =   0.0400000
        k(   10) = (   0.0000000   0.5567306   0.0000000), wk =   0.0400000
        k(   11) = (   0.0000000   0.6185896   0.0000000), wk =   0.0400000
        k(   12) = (   0.0000000   0.6804485   0.0000000), wk =   0.0400000
        k(   13) = (   0.0000000   0.7423075   0.0000000), wk =   0.0400000
        k(   14) = (   0.0000000   0.8041664   0.0000000), wk =   0.0400000
        k(   15) = (   0.0000000   0.8660254   0.0000000), wk =   0.0400000
        k(   16) = (   0.0433013   0.8227241   0.0000000), wk =   0.0400000
        k(   17) = (   0.0866025   0.7794229   0.0000000), wk =   0.0400000
        k(   18) = (   0.1299038   0.7361216   0.0000000), wk =   0.0400000
        k(   19) = (   0.1732051   0.6928203   0.0000000), wk =   0.0400000
        k(   20) = (   0.2165064   0.6495191   0.0000000), wk =   0.0400000
        k(   21) = (   0.2598076   0.6062178   0.0000000), wk =   0.0400000
        k(   22) = (   0.3031089   0.5629165   0.0000000), wk =   0.0400000
        k(   23) = (   0.3464102   0.5196152   0.0000000), wk =   0.0400000
        k(   24) = (   0.3897114   0.4763140   0.0000000), wk =   0.0400000
        k(   25) = (   0.4330127   0.4330127   0.0000000), wk =   0.0400000
        k(   26) = (   0.3936479   0.3936479   0.0000000), wk =   0.0400000
        k(   27) = (   0.3542831   0.3542831   0.0000000), wk =   0.0400000
        k(   28) = (   0.3149183   0.3149183   0.0000000), wk =   0.0400000
        k(   29) = (   0.2755535   0.2755535   0.0000000), wk =   0.0400000
        k(   30) = (   0.2361887   0.2361887   0.0000000), wk =   0.0400000
        k(   31) = (   0.1968240   0.1968240   0.0000000), wk =   0.0400000
        k(   32) = (   0.1574592   0.1574592   0.0000000), wk =   0.0400000
        k(   33) = (   0.1180944   0.1180944   0.0000000), wk =   0.0400000
        k(   34) = (   0.0787296   0.0787296   0.0000000), wk =   0.0400000
        k(   35) = (   0.0393648   0.0393648   0.0000000), wk =   0.0400000
        k(   36) = (   0.0000000   0.0000000   0.0000000), wk =   0.0400000
        k(   37) = (   0.0309295   0.0309295   0.0309295), wk =   0.0400000
        k(   38) = (   0.0618590   0.0618590   0.0618590), wk =   0.0400000
        k(   39) = (   0.0927884   0.0927884   0.0927884), wk =   0.0400000
        k(   40) = (   0.1237179   0.1237179   0.1237179), wk =   0.0400000
        k(   41) = (   0.1546474   0.1546474   0.1546474), wk =   0.0400000
        k(   42) = (   0.1855769   0.1855769   0.1855769), wk =   0.0400000
        k(   43) = (   0.2165064   0.2165064   0.2165064), wk =   0.0400000
        k(   44) = (   0.2474358   0.2474358   0.2474358), wk =   0.0400000
        k(   45) = (   0.2783653   0.2783653   0.2783653), wk =   0.0400000
        k(   46) = (   0.3092948   0.3092948   0.3092948), wk =   0.0400000
        k(   47) = (   0.3402243   0.3402243   0.3402243), wk =   0.0400000
        k(   48) = (   0.3711537   0.3711537   0.3711537), wk =   0.0400000
        k(   49) = (   0.4020832   0.4020832   0.4020832), wk =   0.0400000
        k(   50) = (   0.4330127   0.4330127   0.4330127), wk =   0.0400000

                       cryst. coord.
        k(    1) = (   0.0000000   0.0000000   0.0000000), wk =   0.0400000
        k(    2) = (   0.0357143  -0.0357143   0.0357143), wk =   0.0400000
        k(    3) = (   0.0714286  -0.0714286   0.0714286), wk =   0.0400000
        k(    4) = (   0.1071429  -0.1071429   0.1071429), wk =   0.0400000
        k(    5) = (   0.1428571  -0.1428571   0.1428571), wk =   0.0400000
        k(    6) = (   0.1785714  -0.1785714   0.1785714), wk =   0.0400000
        k(    7) = (   0.2142857  -0.2142857   0.2142857), wk =   0.0400000
        k(    8) = (   0.2500000  -0.2500000   0.2500000), wk =   0.0400000
        k(    9) = (   0.2857143  -0.2857143   0.2857143), wk =   0.0400000
        k(   10) = (   0.3214286  -0.3214286   0.3214286), wk =   0.0400000
        k(   11) = (   0.3571429  -0.3571429   0.3571429), wk =   0.0400000
        k(   12) = (   0.3928571  -0.3928571   0.3928571), wk =   0.0400000
        k(   13) = (   0.4285714  -0.4285714   0.4285714), wk =   0.0400000
        k(   14) = (   0.4642857  -0.4642857   0.4642857), wk =   0.0400000
        k(   15) = (   0.5000000  -0.5000000   0.5000000), wk =   0.0400000
        k(   16) = (   0.4500000  -0.4500000   0.5000000), wk =   0.0400000
        k(   17) = (   0.4000000  -0.4000000   0.5000000), wk =   0.0400000
        k(   18) = (   0.3500000  -0.3500000   0.5000000), wk =   0.0400000
        k(   19) = (   0.3000000  -0.3000000   0.5000000), wk =   0.0400000
        k(   20) = (   0.2500000  -0.2500000   0.5000000), wk =   0.0400000
        k(   21) = (   0.2000000  -0.2000000   0.5000000), wk =   0.0400000
        k(   22) = (   0.1500000  -0.1500000   0.5000000), wk =   0.0400000
        k(   23) = (   0.1000000  -0.1000000   0.5000000), wk =   0.0400000
        k(   24) = (   0.0500000  -0.0500000   0.5000000), wk =   0.0400000
        k(   25) = (   0.0000000   0.0000000   0.5000000), wk =   0.0400000
        k(   26) = (   0.0000000   0.0000000   0.4545455), wk =   0.0400000
        k(   27) = (   0.0000000   0.0000000   0.4090909), wk =   0.0400000
        k(   28) = (   0.0000000   0.0000000   0.3636364), wk =   0.0400000
        k(   29) = (   0.0000000   0.0000000   0.3181818), wk =   0.0400000
        k(   30) = (   0.0000000   0.0000000   0.2727273), wk =   0.0400000
        k(   31) = (   0.0000000   0.0000000   0.2272727), wk =   0.0400000
        k(   32) = (   0.0000000   0.0000000   0.1818182), wk =   0.0400000
        k(   33) = (   0.0000000   0.0000000   0.1363636), wk =   0.0400000
        k(   34) = (   0.0000000   0.0000000   0.0909091), wk =   0.0400000
        k(   35) = (   0.0000000   0.0000000   0.0454545), wk =   0.0400000
        k(   36) = (   0.0000000   0.0000000   0.0000000), wk =   0.0400000
        k(   37) = (   0.0178571   0.0178571   0.0178571), wk =   0.0400000
        k(   38) = (   0.0357143   0.0357143   0.0357143), wk =   0.0400000
        k(   39) = (   0.0535714   0.0535714   0.0535714), wk =   0.0400000
        k(   40) = (   0.0714286   0.0714286   0.0714286), wk =   0.0400000
        k(   41) = (   0.0892857   0.0892857   0.0892857), wk =   0.0400000
        k(   42) = (   0.1071429   0.1071429   0.1071429), wk =   0.0400000
        k(   43) = (   0.1250000   0.1250000   0.1250000), wk =   0.0400000
        k(   44) = (   0.1428571   0.1428571   0.1428571), wk =   0.0400000
        k(   45) = (   0.1607143   0.1607143   0.1607143), wk =   0.0400000
        k(   46) = (   0.1785714   0.1785714   0.1785714), wk =   0.0400000
        k(   47) = (   0.1964286   0.1964286   0.1964286), wk =   0.0400000
        k(   48) = (   0.2142857   0.2142857   0.2142857), wk =   0.0400000
        k(   49) = (   0.2321429   0.2321429   0.2321429), wk =   0.0400000
        k(   50) = (   0.2500000   0.2500000   0.2500000), wk =   0.0400000

     Dense  grid:     5089 G-vectors     FFT dimensions: (  24,  24,  24)

     Smooth grid:     3589 G-vectors     FFT dimensions: (  24,  24,  24)

     Estimated max dynamical RAM per process >       4.56Mb

     The potential is recalculated from file :
     ./pwscf.save/charge-density.dat

     Starting wfc are    4 randomized atomic wfcs +    3 random wfc

     Band Structure Calculation
     Davidson diagonalization with overlap

     Computing kpt #:     1
     total cpu time spent up to now is        0.6 secs

     Computing kpt #:     2
     total cpu time spent up to now is        0.8 secs

     Computing kpt #:     3
     total cpu time spent up to now is        0.9 secs

     Computing kpt #:     4
     total cpu time spent up to now is        1.0 secs

     Computing kpt #:     5
     total cpu time spent up to now is        1.2 secs

     Computing kpt #:     6
     total cpu time spent up to now is        1.3 secs

     Computing kpt #:     7
     total cpu time spent up to now is        1.4 secs

     Computing kpt #:     8
     total cpu time spent up to now is        1.6 secs

     Computing kpt #:     9
     total cpu time spent up to now is        1.7 secs

     Computing kpt #:    10
     total cpu time spent up to now is        1.8 secs

     Computing kpt #:    11
     total cpu time spent up to now is        1.9 secs

     Computing kpt #:    12
     total cpu time spent up to now is        2.1 secs

     Computing kpt #:    13
     total cpu time spent up to now is        2.2 secs

     Computing kpt #:    14
     total cpu time spent up to now is        2.4 secs

     Computing kpt #:    15
     total cpu time spent up to now is        2.5 secs

     Computing kpt #:    16
     total cpu time spent up to now is        2.6 secs

     Computing kpt #:    17
     total cpu time spent up to now is        2.8 secs

     Computing kpt #:    18
     total cpu time spent up to now is        2.9 secs

     Computing kpt #:    19
     total cpu time spent up to now is        3.0 secs

     Computing kpt #:    20
     total cpu time spent up to now is        3.2 secs

     Computing kpt #:    21
     total cpu time spent up to now is        3.3 secs

     Computing kpt #:    22
     total cpu time spent up to now is        3.4 secs

     Computing kpt #:    23
     total cpu time spent up to now is        3.6 secs

     Computing kpt #:    24
     total cpu time spent up to now is        3.7 secs

     Computing kpt #:    25
     total cpu time spent up to now is        3.9 secs

     Computing kpt #:    26
     total cpu time spent up to now is        4.1 secs

     Computing kpt #:    27
     total cpu time spent up to now is        4.2 secs

     Computing kpt #:    28
     total cpu time spent up to now is        4.4 secs

     Computing kpt #:    29
     total cpu time spent up to now is        4.6 secs

     Computing kpt #:    30
     total cpu time spent up to now is        4.8 secs

     Computing kpt #:    31
     total cpu time spent up to now is        4.9 secs

     Computing kpt #:    32
     total cpu time spent up to now is        5.1 secs

     Computing kpt #:    33
     total cpu time spent up to now is        5.3 secs

     Computing kpt #:    34
     total cpu time spent up to now is        5.4 secs

     Computing kpt #:    35
     total cpu time spent up to now is        5.5 secs

     Computing kpt #:    36
     total cpu time spent up to now is        5.6 secs

     Computing kpt #:    37
     total cpu time spent up to now is        5.8 secs

     Computing kpt #:    38
     total cpu time spent up to now is        5.9 secs

     Computing kpt #:    39
     total cpu time spent up to now is        6.0 secs

     Computing kpt #:    40
     total cpu time spent up to now is        6.1 secs

     Computing kpt #:    41
     total cpu time spent up to now is        6.3 secs

     Computing kpt #:    42
     total cpu time spent up to now is        6.4 secs

     Computing kpt #:    43
     total cpu time spent up to now is        6.5 secs

     Computing kpt #:    44
     total cpu time spent up to now is        6.7 secs

     Computing kpt #:    45
     total cpu time spent up to now is        6.8 secs

     Computing kpt #:    46
     total cpu time spent up to now is        7.0 secs

     Computing kpt #:    47
     total cpu time spent up to now is        7.1 secs

     Computing kpt #:    48
     total cpu time spent up to now is        7.3 secs

     Computing kpt #:    49
     total cpu time spent up to now is        7.4 secs

     Computing kpt #:    50
     total cpu time spent up to now is        7.5 secs

     ethr =  1.67E-09,  avg # of iterations = 21.3

     total cpu time spent up to now is        7.5 secs

     End of band structure calculation

          k = 0.0000 0.0000 0.0000 (   459 PWs)   bands (ev):

    -7.6326  12.3650  12.3650  12.3650  21.2018  21.2018  21.2018

          k = 0.0000 0.0619 0.0000 (   446 PWs)   bands (ev):

    -7.5683  12.1508  12.2367  12.2367  21.2143  21.2143  21.2685

          k = 0.0000 0.1237 0.0000 (   446 PWs)   bands (ev):

    -7.3760  11.5732  11.8696  11.8696  21.2777  21.2777  21.4683

          k = 0.0000 0.1856 0.0000 (   454 PWs)   bands (ev):

    -7.0577  10.7691  11.3120  11.3120  21.4424  21.4424  21.6599

          k = 0.0000 0.2474 0.0000 (   450 PWs)   bands (ev):

    -6.6169   9.8641  10.6276  10.6276  20.2893  21.7450  21.7450

          k = 0.0000 0.3093 0.0000 (   446 PWs)   bands (ev):

    -6.0590   8.9459   9.8796   9.8796  18.9979  22.1990  22.1990

          k = 0.0000 0.3712 0.0000 (   446 PWs)   bands (ev):

    -5.3928   8.0714   9.1211   9.1211  17.8152  22.8031  22.8031

          k = 0.0000 0.4330 0.0000 (   442 PWs)   bands (ev):

    -4.6311   7.2796   8.3922   8.3922  16.7561  23.1006  23.5500

          k = 0.0000 0.4949 0.0000 (   450 PWs)   bands (ev):

    -3.7941   6.5998   7.7219   7.7219  15.8291  21.5803  24.4292

          k = 0.0000 0.5567 0.0000 (   450 PWs)   bands (ev):

    -2.9128   6.0592   7.1303   7.1303  15.0391  19.7777  25.4276

          k = 0.0000 0.6186 0.0000 (   454 PWs)   bands (ev):

    -2.0356   5.6853   6.6316   6.6316  14.3895  17.9159  26.5264

          k = 0.0000 0.6804 0.0000 (   454 PWs)   bands (ev):

    -1.2326   5.5035   6.2355   6.2355  13.8825  16.1616  27.6927

          k = 0.0000 0.7423 0.0000 (   462 PWs)   bands (ev):

    -0.5898   5.5139   5.9484   5.9484  13.5194  14.6667  28.8567

          k = 0.0000 0.8042 0.0000 (   466 PWs)   bands (ev):

    -0.1820   5.6401   5.7747   5.7747  13.3012  13.6165  29.8467

          k = 0.0000 0.8660 0.0000 (   466 PWs)   bands (ev):

    -0.0441   5.7165   5.7165   5.7165  13.2285  13.2285  30.2795

          k = 0.0433 0.8227 0.0000 (   466 PWs)   bands (ev):

    -0.1748   5.5386   5.7735   5.8690  13.3793  13.5323  29.5908

          k = 0.0866 0.7794 0.0000 (   466 PWs)   bands (ev):

    -0.5204   5.0806   5.9432   6.2825  13.8242  14.3669  28.0543

          k = 0.1299 0.7361 0.0000 (   458 PWs)   bands (ev):

    -0.9860   4.4860   6.2221   6.8704  14.5363  15.5857  26.2532

          k = 0.1732 0.6928 0.0000 (   456 PWs)   bands (ev):

    -1.4878   3.8664   6.6028   7.5631  15.4598  17.0715  24.4239

          k = 0.2165 0.6495 0.0000 (   444 PWs)   bands (ev):

    -1.9691   3.2874   7.0728   8.3205  16.4840  18.7493  22.6685

          k = 0.2598 0.6062 0.0000 (   442 PWs)   bands (ev):

    -2.3947   2.7856   7.6106   9.1179  17.3775  20.5676  21.0494

          k = 0.3031 0.5629 0.0000 (   448 PWs)   bands (ev):

    -2.7425   2.3813   8.1792   9.9272  17.7519  19.6254  22.4807

          k = 0.3464 0.5196 0.0000 (   454 PWs)   bands (ev):

    -2.9989   2.0861   8.7149  10.6922  17.4802  18.4719  24.4236

          k = 0.3897 0.4763 0.0000 (   446 PWs)   bands (ev):

    -3.1556   1.9068   9.1184  11.2940  16.9933  17.6954  25.8450

          k = 0.4330 0.4330 0.0000 (   444 PWs)   bands (ev):

    -3.2084   1.8467   9.2724  11.5359  16.7634  17.4167  26.7160

          k = 0.3936 0.3936 0.0000 (   452 PWs)   bands (ev):

    -3.4171   2.1405   9.3153  11.5530  16.8292  17.4673  26.5730

          k = 0.3543 0.3543 0.0000 (   458 PWs)   bands (ev):

    -3.9303   2.9069   9.4430  11.6030  17.0265  17.6182  26.1978

          k = 0.3149 0.3149 0.0000 (   458 PWs)   bands (ev):

    -4.5674   3.9589   9.6529  11.6817  17.3547  17.8667  25.6976

          k = 0.2756 0.2756 0.0000 (   446 PWs)   bands (ev):

    -5.2169   5.1732   9.9396  11.7828  17.8119  18.2075  25.1627

          k = 0.2362 0.2362 0.0000 (   450 PWs)   bands (ev):

    -5.8235   6.4763  10.2946  11.8976  18.3926  18.6318  24.6539

          k = 0.1968 0.1968 0.0000 (   449 PWs)   bands (ev):

    -6.3596   7.8129  10.7041  12.0165  19.0813  19.1253  24.2158

          k = 0.1575 0.1575 0.0000 (   451 PWs)   bands (ev):

    -6.8103   9.1275  11.1468  12.1294  19.6647  19.8369  23.8961

          k = 0.1181 0.1181 0.0000 (   449 PWs)   bands (ev):

    -7.1670  10.3505  11.5894  12.2270  20.2123  20.5551  22.8226

          k = 0.0787 0.0787 0.0000 (   447 PWs)   bands (ev):

    -7.4248  11.3859  11.9828  12.3020  20.7083  21.0409  21.9616

          k = 0.0394 0.0394 0.0000 (   447 PWs)   bands (ev):

    -7.5805  12.1037  12.2624  12.3490  21.0680  21.1957  21.3990

          k = 0.0000 0.0000 0.0000 (   459 PWs)   bands (ev):

    -7.6326  12.3650  12.3650  12.3650  21.2018  21.2018  21.2018

          k = 0.0309 0.0309 0.0309 (   444 PWs)   bands (ev):

    -7.5843  12.0994  12.3219  12.3219  21.1189  21.1189  21.4172

          k = 0.0619 0.0619 0.0619 (   444 PWs)   bands (ev):

    -7.4401  11.3977  12.1854  12.1854  20.8757  20.8757  21.9201

          k = 0.0928 0.0928 0.0928 (   447 PWs)   bands (ev):

    -7.2014  10.4414  11.9364  11.9364  20.5260  20.5260  22.4653

          k = 0.1237 0.1237 0.1237 (   444 PWs)   bands (ev):

    -6.8707   9.3754  11.5553  11.5553  20.1899  20.1899  22.9657

          k = 0.1546 0.1546 0.1546 (   456 PWs)   bands (ev):

    -6.4524   8.2893  11.0364  11.0364  19.9819  19.9819  23.4511

          k = 0.1856 0.1856 0.1856 (   456 PWs)   bands (ev):

    -5.9529   7.2383  10.3975  10.3975  19.9589  19.9589  23.9503

          k = 0.2165 0.2165 0.2165 (   447 PWs)   bands (ev):

    -5.3827   6.2606   9.6751   9.6751  20.1272  20.1272  24.4673

          k = 0.2474 0.2474 0.2474 (   462 PWs)   bands (ev):

    -4.7581   5.3891   8.9114   8.9114  20.4665  20.4665  24.9842

          k = 0.2784 0.2784 0.2784 (   468 PWs)   bands (ev):

    -4.1055   4.6601   8.1437   8.1437  20.9481  20.9481  25.4612

          k = 0.3093 0.3093 0.3093 (   462 PWs)   bands (ev):

    -3.4669   4.1215   7.4015   7.4015  21.5422  21.5422  25.8294

          k = 0.3402 0.3402 0.3402 (   462 PWs)   bands (ev):

    -2.9042   3.8377   6.7058   6.7058  22.2172  22.2172  25.9859

          k = 0.3712 0.3712 0.3712 (   462 PWs)   bands (ev):

    -2.4886   3.8798   6.0717   6.0717  22.9362  22.9362  25.8107

          k = 0.4021 0.4021 0.4021 (   456 PWs)   bands (ev):

    -2.2616   4.2862   5.5097   5.5097  23.6486  23.6486  25.2299

          k = 0.4330 0.4330 0.4330 (   456 PWs)   bands (ev):

    -2.2000   5.0268   5.0268   5.0268  24.2774  24.2774  24.2774

     Writing output data file pwscf.save

     init_run     :      0.55s CPU      0.39s WALL (       1 calls)
     electrons    :     13.78s CPU      6.95s WALL (       1 calls)

     Called by init_run:
     wfcinit      :      0.00s CPU      0.00s WALL (       1 calls)
     wfcinit:atom :      0.00s CPU      0.01s WALL (      50 calls)
     wfcinit:wfcr :      0.83s CPU      0.39s WALL (      50 calls)
     potinit      :      0.00s CPU      0.01s WALL (       1 calls)

     Called by electrons:
     c_bands      :     13.78s CPU      6.95s WALL (       1 calls)
     v_of_rho     :      0.00s CPU      0.01s WALL (       1 calls)
     v_h          :      0.00s CPU      0.00s WALL (       1 calls)
     v_xc         :      0.00s CPU      0.01s WALL (       1 calls)
     newd         :      0.03s CPU      0.03s WALL (       1 calls)

     Called by c_bands:
     init_us_2    :      0.11s CPU      0.02s WALL (      50 calls)
     cegterg      :     12.83s CPU      6.43s WALL (      70 calls)

     Called by sum_band:

     Called by *egterg:
     h_psi        :     10.78s CPU      5.32s WALL (    1186 calls)
     s_psi        :      0.25s CPU      0.08s WALL (    1186 calls)
     g_psi        :      0.00s CPU      0.03s WALL (    1066 calls)
     cdiaghg      :      1.72s CPU      0.90s WALL (    1116 calls)
     cegterg:over :      0.31s CPU      0.16s WALL (    1066 calls)
     cegterg:upda :      0.33s CPU      0.13s WALL (    1066 calls)
     cegterg:last :      0.17s CPU      0.08s WALL (     229 calls)

     Called by h_psi:
     h_psi:pot    :     10.75s CPU      5.29s WALL (    1186 calls)
     h_psi:calbec :      0.36s CPU      0.11s WALL (    1186 calls)
     vloc_psi     :     10.17s CPU      5.06s WALL (    1186 calls)
     add_vuspsi   :      0.22s CPU      0.09s WALL (    1186 calls)

     General routines
     calbec       :      0.34s CPU      0.09s WALL (    1186 calls)
     fft          :      0.00s CPU      0.01s WALL (      13 calls)
     ffts         :      0.00s CPU      0.00s WALL (       1 calls)
     fftw         :      9.48s CPU      4.67s WALL (    9996 calls)
     interpolate  :      0.00s CPU      0.00s WALL (       1 calls)
     davcio       :      0.00s CPU      0.00s WALL (      50 calls)

     Parallel routines
     fft_scatter  :      0.41s CPU      0.22s WALL (   10010 calls)

     PWSCF        :    14.70s CPU         7.77s WALL


   This run was terminated on:  12: 2:33  25Feb2021            

=------------------------------------------------------------------------------=
   JOB DONE.
=------------------------------------------------------------------------------=
