
     Program PWSCF v.6.0 (svn rev. 13079) starts on 25Feb2021 at 21:44:49 

     This program is part of the open-source Quantum ESPRESSO suite
     for quantum simulation of materials; please cite
         "P. Giannozzi et al., J. Phys.:Condens. Matter 21 395502 (2009);
          URL http://www.quantum-espresso.org", 
     in publications or presentations arising from this work. More details at
     http://www.quantum-espresso.org/quote

     Parallel version (MPI), running on     1 processors
     Reading input from espresso.pwi
Warning: card &IONS ignored
Warning: card / ignored
Warning: card &CELL ignored
Warning: card / ignored

     Current dimensions of program PWSCF are:
     Max number of different atomic species (ntypx) = 10
     Max number of k-points (npk) =  40000
     Max angular momentum in pseudopotentials (lmaxx) =  3
     Message from routine input:
     WARNING: "startingwfc" set to atomic+random may spoil restart

     Atomic positions and unit cell read from directory:
     ./pwscf.save/


     IMPORTANT: XC functional enforced from input :
     Exchange-correlation      = PBE ( 1  4  3  4 0 0)
     Any further DFT definition will be discarded
     Please, verify this is what you really want


     Subspace diagonalization in iterative solution of the eigenvalue problem:
     a serial algorithm will be used


     G-vector sticks info
     --------------------
     sticks:   dense  smooth     PW     G-vecs:    dense   smooth      PW
     Sum         693     553    173                11537     8247    1481



     bravais-lattice index     =            0
     lattice parameter (alat)  =       6.7982  a.u.
     unit-cell volume          =     241.8611 (a.u.)^3
     number of atoms/cell      =            1
     number of atomic types    =            1
     number of electrons       =         7.00
     number of Kohn-Sham states=            8
     kinetic-energy cutoff     =      40.0000  Ry
     charge density cutoff     =     200.0000  Ry
     Exchange-correlation      = PBE ( 1  4  3  4 0 0)

     celldm(1)=   6.798232  celldm(2)=   0.000000  celldm(3)=   0.000000
     celldm(4)=   0.000000  celldm(5)=   0.000000  celldm(6)=   0.000000

     crystal axes: (cart. coord. in units of alat)
               a(1) = (  -0.577350   0.577350   0.577350 )  
               a(2) = (   0.577350  -0.577350   0.577350 )  
               a(3) = (   0.577350   0.577350  -0.577350 )  

     reciprocal axes: (cart. coord. in units 2 pi/alat)
               b(1) = (  0.000000  0.866025  0.866025 )  
               b(2) = (  0.866025  0.000000  0.866025 )  
               b(3) = (  0.866025  0.866025  0.000000 )  


     PseudoPot. # 1 for I  read from file:
     /home/inukai/tango/tests/1element/qe_fit_v2_I/../pseudo/i_pbe_v1.uspp.F.UPF
     MD5 check sum: 51366c2fb896752a147e77acbb9f6bcb
     Pseudo is Ultrasoft + core correction, Zval =  7.0
     Generated by new atomic code, or converted to UPF format
     Using radial grid of  893 points,  6 beta functions with: 
                l(1) =   0
                l(2) =   0
                l(3) =   1
                l(4) =   1
                l(5) =   2
                l(6) =   2
     Q(r) pseudized with  8 coefficients,  rinner =    1.500   1.500   1.500
                                                       1.500   1.500

     atomic species   valence    mass     pseudopotential
        I              7.00   126.90447     I ( 1.00)

     48 Sym. Ops., with inversion, found


                                    s                        frac. trans.

      isym =  1     identity                                     

 cryst.   s( 1) = (     1          0          0      )
                  (     0          1          0      )
                  (     0          0          1      )

 cart.    s( 1) = (  1.0000000  0.0000000  0.0000000 )
                  (  0.0000000  1.0000000  0.0000000 )
                  (  0.0000000  0.0000000  1.0000000 )


      isym =  2     180 deg rotation - cart. axis [0,0,1]        

 cryst.   s( 2) = (     0          1          0      )
                  (     1          0          0      )
                  (    -1         -1         -1      )

 cart.    s( 2) = ( -1.0000000  0.0000000  0.0000000 )
                  (  0.0000000 -1.0000000  0.0000000 )
                  (  0.0000000  0.0000000  1.0000000 )


      isym =  3     180 deg rotation - cart. axis [0,1,0]        

 cryst.   s( 3) = (     0          0          1      )
                  (    -1         -1         -1      )
                  (     1          0          0      )

 cart.    s( 3) = ( -1.0000000  0.0000000  0.0000000 )
                  (  0.0000000  1.0000000  0.0000000 )
                  (  0.0000000  0.0000000 -1.0000000 )


      isym =  4     180 deg rotation - cart. axis [1,0,0]        

 cryst.   s( 4) = (    -1         -1         -1      )
                  (     0          0          1      )
                  (     0          1          0      )

 cart.    s( 4) = (  1.0000000  0.0000000  0.0000000 )
                  (  0.0000000 -1.0000000  0.0000000 )
                  (  0.0000000  0.0000000 -1.0000000 )


      isym =  5     180 deg rotation - cart. axis [1,1,0]        

 cryst.   s( 5) = (    -1          0          0      )
                  (     0         -1          0      )
                  (     1          1          1      )

 cart.    s( 5) = (  0.0000000  1.0000000  0.0000000 )
                  (  1.0000000  0.0000000  0.0000000 )
                  (  0.0000000  0.0000000 -1.0000000 )


      isym =  6     180 deg rotation - cart. axis [1,-1,0]       

 cryst.   s( 6) = (     0         -1          0      )
                  (    -1          0          0      )
                  (     0          0         -1      )

 cart.    s( 6) = (  0.0000000 -1.0000000  0.0000000 )
                  ( -1.0000000  0.0000000  0.0000000 )
                  (  0.0000000  0.0000000 -1.0000000 )


      isym =  7      90 deg rotation - cart. axis [0,0,-1]       

 cryst.   s( 7) = (     1          1          1      )
                  (     0          0         -1      )
                  (    -1          0          0      )

 cart.    s( 7) = (  0.0000000  1.0000000  0.0000000 )
                  ( -1.0000000  0.0000000  0.0000000 )
                  (  0.0000000  0.0000000  1.0000000 )


      isym =  8      90 deg rotation - cart. axis [0,0,1]        

 cryst.   s( 8) = (     0          0         -1      )
                  (     1          1          1      )
                  (     0         -1          0      )

 cart.    s( 8) = (  0.0000000 -1.0000000  0.0000000 )
                  (  1.0000000  0.0000000  0.0000000 )
                  (  0.0000000  0.0000000  1.0000000 )


      isym =  9     180 deg rotation - cart. axis [1,0,1]        

 cryst.   s( 9) = (    -1          0          0      )
                  (     1          1          1      )
                  (     0          0         -1      )

 cart.    s( 9) = (  0.0000000  0.0000000  1.0000000 )
                  (  0.0000000 -1.0000000  0.0000000 )
                  (  1.0000000  0.0000000  0.0000000 )


      isym = 10     180 deg rotation - cart. axis [-1,0,1]       

 cryst.   s(10) = (     0          0         -1      )
                  (     0         -1          0      )
                  (    -1          0          0      )

 cart.    s(10) = (  0.0000000  0.0000000 -1.0000000 )
                  (  0.0000000 -1.0000000  0.0000000 )
                  ( -1.0000000  0.0000000  0.0000000 )


      isym = 11      90 deg rotation - cart. axis [0,1,0]        

 cryst.   s(11) = (     1          1          1      )
                  (    -1          0          0      )
                  (     0         -1          0      )

 cart.    s(11) = (  0.0000000  0.0000000  1.0000000 )
                  (  0.0000000  1.0000000  0.0000000 )
                  ( -1.0000000  0.0000000  0.0000000 )


      isym = 12      90 deg rotation - cart. axis [0,-1,0]       

 cryst.   s(12) = (     0         -1          0      )
                  (     0          0         -1      )
                  (     1          1          1      )

 cart.    s(12) = (  0.0000000  0.0000000 -1.0000000 )
                  (  0.0000000  1.0000000  0.0000000 )
                  (  1.0000000  0.0000000  0.0000000 )


      isym = 13     180 deg rotation - cart. axis [0,1,1]        

 cryst.   s(13) = (     1          1          1      )
                  (     0         -1          0      )
                  (     0          0         -1      )

 cart.    s(13) = ( -1.0000000  0.0000000  0.0000000 )
                  (  0.0000000  0.0000000  1.0000000 )
                  (  0.0000000  1.0000000  0.0000000 )


      isym = 14     180 deg rotation - cart. axis [0,1,-1]       

 cryst.   s(14) = (    -1          0          0      )
                  (     0          0         -1      )
                  (     0         -1          0      )

 cart.    s(14) = ( -1.0000000  0.0000000  0.0000000 )
                  (  0.0000000  0.0000000 -1.0000000 )
                  (  0.0000000 -1.0000000  0.0000000 )


      isym = 15      90 deg rotation - cart. axis [-1,0,0]       

 cryst.   s(15) = (     0         -1          0      )
                  (     1          1          1      )
                  (    -1          0          0      )

 cart.    s(15) = (  1.0000000  0.0000000  0.0000000 )
                  (  0.0000000  0.0000000  1.0000000 )
                  (  0.0000000 -1.0000000  0.0000000 )


      isym = 16      90 deg rotation - cart. axis [1,0,0]        

 cryst.   s(16) = (     0          0         -1      )
                  (    -1          0          0      )
                  (     1          1          1      )

 cart.    s(16) = (  1.0000000  0.0000000  0.0000000 )
                  (  0.0000000  0.0000000 -1.0000000 )
                  (  0.0000000  1.0000000  0.0000000 )


      isym = 17     120 deg rotation - cart. axis [-1,-1,-1]     

 cryst.   s(17) = (     0          0          1      )
                  (     1          0          0      )
                  (     0          1          0      )

 cart.    s(17) = (  0.0000000  1.0000000  0.0000000 )
                  (  0.0000000  0.0000000  1.0000000 )
                  (  1.0000000  0.0000000  0.0000000 )


      isym = 18     120 deg rotation - cart. axis [-1,1,1]       

 cryst.   s(18) = (     1          0          0      )
                  (     0          0          1      )
                  (    -1         -1         -1      )

 cart.    s(18) = (  0.0000000 -1.0000000  0.0000000 )
                  (  0.0000000  0.0000000  1.0000000 )
                  ( -1.0000000  0.0000000  0.0000000 )


      isym = 19     120 deg rotation - cart. axis [1,1,-1]       

 cryst.   s(19) = (     0          1          0      )
                  (    -1         -1         -1      )
                  (     0          0          1      )

 cart.    s(19) = (  0.0000000  1.0000000  0.0000000 )
                  (  0.0000000  0.0000000 -1.0000000 )
                  ( -1.0000000  0.0000000  0.0000000 )


      isym = 20     120 deg rotation - cart. axis [1,-1,1]       

 cryst.   s(20) = (    -1         -1         -1      )
                  (     0          1          0      )
                  (     1          0          0      )

 cart.    s(20) = (  0.0000000 -1.0000000  0.0000000 )
                  (  0.0000000  0.0000000 -1.0000000 )
                  (  1.0000000  0.0000000  0.0000000 )


      isym = 21     120 deg rotation - cart. axis [1,1,1]        

 cryst.   s(21) = (     0          1          0      )
                  (     0          0          1      )
                  (     1          0          0      )

 cart.    s(21) = (  0.0000000  0.0000000  1.0000000 )
                  (  1.0000000  0.0000000  0.0000000 )
                  (  0.0000000  1.0000000  0.0000000 )


      isym = 22     120 deg rotation - cart. axis [-1,1,-1]      

 cryst.   s(22) = (     0          0          1      )
                  (     0          1          0      )
                  (    -1         -1         -1      )

 cart.    s(22) = (  0.0000000  0.0000000  1.0000000 )
                  ( -1.0000000  0.0000000  0.0000000 )
                  (  0.0000000 -1.0000000  0.0000000 )


      isym = 23     120 deg rotation - cart. axis [1,-1,-1]      

 cryst.   s(23) = (     1          0          0      )
                  (    -1         -1         -1      )
                  (     0          1          0      )

 cart.    s(23) = (  0.0000000  0.0000000 -1.0000000 )
                  ( -1.0000000  0.0000000  0.0000000 )
                  (  0.0000000  1.0000000  0.0000000 )


      isym = 24     120 deg rotation - cart. axis [-1,-1,1]      

 cryst.   s(24) = (    -1         -1         -1      )
                  (     1          0          0      )
                  (     0          0          1      )

 cart.    s(24) = (  0.0000000  0.0000000 -1.0000000 )
                  (  1.0000000  0.0000000  0.0000000 )
                  (  0.0000000 -1.0000000  0.0000000 )


      isym = 25     inversion                                    

 cryst.   s(25) = (    -1          0          0      )
                  (     0         -1          0      )
                  (     0          0         -1      )

 cart.    s(25) = ( -1.0000000  0.0000000  0.0000000 )
                  (  0.0000000 -1.0000000  0.0000000 )
                  (  0.0000000  0.0000000 -1.0000000 )


      isym = 26     inv. 180 deg rotation - cart. axis [0,0,1]   

 cryst.   s(26) = (     0         -1          0      )
                  (    -1          0          0      )
                  (     1          1          1      )

 cart.    s(26) = (  1.0000000  0.0000000  0.0000000 )
                  (  0.0000000  1.0000000  0.0000000 )
                  (  0.0000000  0.0000000 -1.0000000 )


      isym = 27     inv. 180 deg rotation - cart. axis [0,1,0]   

 cryst.   s(27) = (     0          0         -1      )
                  (     1          1          1      )
                  (    -1          0          0      )

 cart.    s(27) = (  1.0000000  0.0000000  0.0000000 )
                  (  0.0000000 -1.0000000  0.0000000 )
                  (  0.0000000  0.0000000  1.0000000 )


      isym = 28     inv. 180 deg rotation - cart. axis [1,0,0]   

 cryst.   s(28) = (     1          1          1      )
                  (     0          0         -1      )
                  (     0         -1          0      )

 cart.    s(28) = ( -1.0000000  0.0000000  0.0000000 )
                  (  0.0000000  1.0000000  0.0000000 )
                  (  0.0000000  0.0000000  1.0000000 )


      isym = 29     inv. 180 deg rotation - cart. axis [1,1,0]   

 cryst.   s(29) = (     1          0          0      )
                  (     0          1          0      )
                  (    -1         -1         -1      )

 cart.    s(29) = (  0.0000000 -1.0000000  0.0000000 )
                  ( -1.0000000  0.0000000  0.0000000 )
                  (  0.0000000  0.0000000  1.0000000 )


      isym = 30     inv. 180 deg rotation - cart. axis [1,-1,0]  

 cryst.   s(30) = (     0          1          0      )
                  (     1          0          0      )
                  (     0          0          1      )

 cart.    s(30) = (  0.0000000  1.0000000  0.0000000 )
                  (  1.0000000  0.0000000  0.0000000 )
                  (  0.0000000  0.0000000  1.0000000 )


      isym = 31     inv.  90 deg rotation - cart. axis [0,0,-1]  

 cryst.   s(31) = (    -1         -1         -1      )
                  (     0          0          1      )
                  (     1          0          0      )

 cart.    s(31) = (  0.0000000 -1.0000000  0.0000000 )
                  (  1.0000000  0.0000000  0.0000000 )
                  (  0.0000000  0.0000000 -1.0000000 )


      isym = 32     inv.  90 deg rotation - cart. axis [0,0,1]   

 cryst.   s(32) = (     0          0          1      )
                  (    -1         -1         -1      )
                  (     0          1          0      )

 cart.    s(32) = (  0.0000000  1.0000000  0.0000000 )
                  ( -1.0000000  0.0000000  0.0000000 )
                  (  0.0000000  0.0000000 -1.0000000 )


      isym = 33     inv. 180 deg rotation - cart. axis [1,0,1]   

 cryst.   s(33) = (     1          0          0      )
                  (    -1         -1         -1      )
                  (     0          0          1      )

 cart.    s(33) = (  0.0000000  0.0000000 -1.0000000 )
                  (  0.0000000  1.0000000  0.0000000 )
                  ( -1.0000000  0.0000000  0.0000000 )


      isym = 34     inv. 180 deg rotation - cart. axis [-1,0,1]  

 cryst.   s(34) = (     0          0          1      )
                  (     0          1          0      )
                  (     1          0          0      )

 cart.    s(34) = (  0.0000000  0.0000000  1.0000000 )
                  (  0.0000000  1.0000000  0.0000000 )
                  (  1.0000000  0.0000000  0.0000000 )


      isym = 35     inv.  90 deg rotation - cart. axis [0,1,0]   

 cryst.   s(35) = (    -1         -1         -1      )
                  (     1          0          0      )
                  (     0          1          0      )

 cart.    s(35) = (  0.0000000  0.0000000 -1.0000000 )
                  (  0.0000000 -1.0000000  0.0000000 )
                  (  1.0000000  0.0000000  0.0000000 )


      isym = 36     inv.  90 deg rotation - cart. axis [0,-1,0]  

 cryst.   s(36) = (     0          1          0      )
                  (     0          0          1      )
                  (    -1         -1         -1      )

 cart.    s(36) = (  0.0000000  0.0000000  1.0000000 )
                  (  0.0000000 -1.0000000  0.0000000 )
                  ( -1.0000000  0.0000000  0.0000000 )


      isym = 37     inv. 180 deg rotation - cart. axis [0,1,1]   

 cryst.   s(37) = (    -1         -1         -1      )
                  (     0          1          0      )
                  (     0          0          1      )

 cart.    s(37) = (  1.0000000  0.0000000  0.0000000 )
                  (  0.0000000  0.0000000 -1.0000000 )
                  (  0.0000000 -1.0000000  0.0000000 )


      isym = 38     inv. 180 deg rotation - cart. axis [0,1,-1]  

 cryst.   s(38) = (     1          0          0      )
                  (     0          0          1      )
                  (     0          1          0      )

 cart.    s(38) = (  1.0000000  0.0000000  0.0000000 )
                  (  0.0000000  0.0000000  1.0000000 )
                  (  0.0000000  1.0000000  0.0000000 )


      isym = 39     inv.  90 deg rotation - cart. axis [-1,0,0]  

 cryst.   s(39) = (     0          1          0      )
                  (    -1         -1         -1      )
                  (     1          0          0      )

 cart.    s(39) = ( -1.0000000  0.0000000  0.0000000 )
                  (  0.0000000  0.0000000 -1.0000000 )
                  (  0.0000000  1.0000000  0.0000000 )


      isym = 40     inv.  90 deg rotation - cart. axis [1,0,0]   

 cryst.   s(40) = (     0          0          1      )
                  (     1          0          0      )
                  (    -1         -1         -1      )

 cart.    s(40) = ( -1.0000000  0.0000000  0.0000000 )
                  (  0.0000000  0.0000000  1.0000000 )
                  (  0.0000000 -1.0000000  0.0000000 )


      isym = 41     inv. 120 deg rotation - cart. axis [-1,-1,-1]

 cryst.   s(41) = (     0          0         -1      )
                  (    -1          0          0      )
                  (     0         -1          0      )

 cart.    s(41) = (  0.0000000 -1.0000000  0.0000000 )
                  (  0.0000000  0.0000000 -1.0000000 )
                  ( -1.0000000  0.0000000  0.0000000 )


      isym = 42     inv. 120 deg rotation - cart. axis [-1,1,1]  

 cryst.   s(42) = (    -1          0          0      )
                  (     0          0         -1      )
                  (     1          1          1      )

 cart.    s(42) = (  0.0000000  1.0000000  0.0000000 )
                  (  0.0000000  0.0000000 -1.0000000 )
                  (  1.0000000  0.0000000  0.0000000 )


      isym = 43     inv. 120 deg rotation - cart. axis [1,1,-1]  

 cryst.   s(43) = (     0         -1          0      )
                  (     1          1          1      )
                  (     0          0         -1      )

 cart.    s(43) = (  0.0000000 -1.0000000  0.0000000 )
                  (  0.0000000  0.0000000  1.0000000 )
                  (  1.0000000  0.0000000  0.0000000 )


      isym = 44     inv. 120 deg rotation - cart. axis [1,-1,1]  

 cryst.   s(44) = (     1          1          1      )
                  (     0         -1          0      )
                  (    -1          0          0      )

 cart.    s(44) = (  0.0000000  1.0000000  0.0000000 )
                  (  0.0000000  0.0000000  1.0000000 )
                  ( -1.0000000  0.0000000  0.0000000 )


      isym = 45     inv. 120 deg rotation - cart. axis [1,1,1]   

 cryst.   s(45) = (     0         -1          0      )
                  (     0          0         -1      )
                  (    -1          0          0      )

 cart.    s(45) = (  0.0000000  0.0000000 -1.0000000 )
                  ( -1.0000000  0.0000000  0.0000000 )
                  (  0.0000000 -1.0000000  0.0000000 )


      isym = 46     inv. 120 deg rotation - cart. axis [-1,1,-1] 

 cryst.   s(46) = (     0          0         -1      )
                  (     0         -1          0      )
                  (     1          1          1      )

 cart.    s(46) = (  0.0000000  0.0000000 -1.0000000 )
                  (  1.0000000  0.0000000  0.0000000 )
                  (  0.0000000  1.0000000  0.0000000 )


      isym = 47     inv. 120 deg rotation - cart. axis [1,-1,-1] 

 cryst.   s(47) = (    -1          0          0      )
                  (     1          1          1      )
                  (     0         -1          0      )

 cart.    s(47) = (  0.0000000  0.0000000  1.0000000 )
                  (  1.0000000  0.0000000  0.0000000 )
                  (  0.0000000 -1.0000000  0.0000000 )


      isym = 48     inv. 120 deg rotation - cart. axis [-1,-1,1] 

 cryst.   s(48) = (     1          1          1      )
                  (    -1          0          0      )
                  (     0          0         -1      )

 cart.    s(48) = (  0.0000000  0.0000000  1.0000000 )
                  ( -1.0000000  0.0000000  0.0000000 )
                  (  0.0000000  1.0000000  0.0000000 )


   Cartesian axes

     site n.     atom                  positions (alat units)
         1           I   tau(   1) = (   0.0000000   0.0000000   0.0000000  )

   Crystallographic axes

     site n.     atom                  positions (cryst. coord.)
         1           I   tau(   1) = (  0.0000000  0.0000000  0.0000000  )

     number of k points=    50  gaussian smearing, width (Ry)=  0.0010
                       cart. coord. in units 2pi/alat
        k(    1) = (   0.0000000   0.0000000   0.0000000), wk =   0.0400000
        k(    2) = (   0.0000000   0.0618590   0.0000000), wk =   0.0400000
        k(    3) = (   0.0000000   0.1237179   0.0000000), wk =   0.0400000
        k(    4) = (   0.0000000   0.1855769   0.0000000), wk =   0.0400000
        k(    5) = (   0.0000000   0.2474358   0.0000000), wk =   0.0400000
        k(    6) = (   0.0000000   0.3092948   0.0000000), wk =   0.0400000
        k(    7) = (   0.0000000   0.3711537   0.0000000), wk =   0.0400000
        k(    8) = (   0.0000000   0.4330127   0.0000000), wk =   0.0400000
        k(    9) = (   0.0000000   0.4948717   0.0000000), wk =   0.0400000
        k(   10) = (   0.0000000   0.5567306   0.0000000), wk =   0.0400000
        k(   11) = (   0.0000000   0.6185896   0.0000000), wk =   0.0400000
        k(   12) = (   0.0000000   0.6804485   0.0000000), wk =   0.0400000
        k(   13) = (   0.0000000   0.7423075   0.0000000), wk =   0.0400000
        k(   14) = (   0.0000000   0.8041664   0.0000000), wk =   0.0400000
        k(   15) = (   0.0000000   0.8660254   0.0000000), wk =   0.0400000
        k(   16) = (   0.0433013   0.8227241   0.0000000), wk =   0.0400000
        k(   17) = (   0.0866025   0.7794229   0.0000000), wk =   0.0400000
        k(   18) = (   0.1299038   0.7361216   0.0000000), wk =   0.0400000
        k(   19) = (   0.1732051   0.6928203   0.0000000), wk =   0.0400000
        k(   20) = (   0.2165064   0.6495191   0.0000000), wk =   0.0400000
        k(   21) = (   0.2598076   0.6062178   0.0000000), wk =   0.0400000
        k(   22) = (   0.3031089   0.5629165   0.0000000), wk =   0.0400000
        k(   23) = (   0.3464102   0.5196152   0.0000000), wk =   0.0400000
        k(   24) = (   0.3897114   0.4763140   0.0000000), wk =   0.0400000
        k(   25) = (   0.4330127   0.4330127   0.0000000), wk =   0.0400000
        k(   26) = (   0.3936479   0.3936479   0.0000000), wk =   0.0400000
        k(   27) = (   0.3542831   0.3542831   0.0000000), wk =   0.0400000
        k(   28) = (   0.3149183   0.3149183   0.0000000), wk =   0.0400000
        k(   29) = (   0.2755535   0.2755535   0.0000000), wk =   0.0400000
        k(   30) = (   0.2361887   0.2361887   0.0000000), wk =   0.0400000
        k(   31) = (   0.1968240   0.1968240   0.0000000), wk =   0.0400000
        k(   32) = (   0.1574592   0.1574592   0.0000000), wk =   0.0400000
        k(   33) = (   0.1180944   0.1180944   0.0000000), wk =   0.0400000
        k(   34) = (   0.0787296   0.0787296   0.0000000), wk =   0.0400000
        k(   35) = (   0.0393648   0.0393648   0.0000000), wk =   0.0400000
        k(   36) = (   0.0000000   0.0000000   0.0000000), wk =   0.0400000
        k(   37) = (   0.0309295   0.0309295   0.0309295), wk =   0.0400000
        k(   38) = (   0.0618590   0.0618590   0.0618590), wk =   0.0400000
        k(   39) = (   0.0927884   0.0927884   0.0927884), wk =   0.0400000
        k(   40) = (   0.1237179   0.1237179   0.1237179), wk =   0.0400000
        k(   41) = (   0.1546474   0.1546474   0.1546474), wk =   0.0400000
        k(   42) = (   0.1855769   0.1855769   0.1855769), wk =   0.0400000
        k(   43) = (   0.2165064   0.2165064   0.2165064), wk =   0.0400000
        k(   44) = (   0.2474358   0.2474358   0.2474358), wk =   0.0400000
        k(   45) = (   0.2783653   0.2783653   0.2783653), wk =   0.0400000
        k(   46) = (   0.3092948   0.3092948   0.3092948), wk =   0.0400000
        k(   47) = (   0.3402243   0.3402243   0.3402243), wk =   0.0400000
        k(   48) = (   0.3711537   0.3711537   0.3711537), wk =   0.0400000
        k(   49) = (   0.4020832   0.4020832   0.4020832), wk =   0.0400000
        k(   50) = (   0.4330127   0.4330127   0.4330127), wk =   0.0400000

                       cryst. coord.
        k(    1) = (   0.0000000   0.0000000   0.0000000), wk =   0.0400000
        k(    2) = (   0.0357143  -0.0357143   0.0357143), wk =   0.0400000
        k(    3) = (   0.0714286  -0.0714286   0.0714286), wk =   0.0400000
        k(    4) = (   0.1071429  -0.1071429   0.1071429), wk =   0.0400000
        k(    5) = (   0.1428571  -0.1428571   0.1428571), wk =   0.0400000
        k(    6) = (   0.1785714  -0.1785714   0.1785714), wk =   0.0400000
        k(    7) = (   0.2142857  -0.2142857   0.2142857), wk =   0.0400000
        k(    8) = (   0.2500000  -0.2500000   0.2500000), wk =   0.0400000
        k(    9) = (   0.2857143  -0.2857143   0.2857143), wk =   0.0400000
        k(   10) = (   0.3214286  -0.3214286   0.3214286), wk =   0.0400000
        k(   11) = (   0.3571429  -0.3571429   0.3571429), wk =   0.0400000
        k(   12) = (   0.3928571  -0.3928571   0.3928571), wk =   0.0400000
        k(   13) = (   0.4285714  -0.4285714   0.4285714), wk =   0.0400000
        k(   14) = (   0.4642857  -0.4642857   0.4642857), wk =   0.0400000
        k(   15) = (   0.5000000  -0.5000000   0.5000000), wk =   0.0400000
        k(   16) = (   0.4500000  -0.4500000   0.5000000), wk =   0.0400000
        k(   17) = (   0.4000000  -0.4000000   0.5000000), wk =   0.0400000
        k(   18) = (   0.3500000  -0.3500000   0.5000000), wk =   0.0400000
        k(   19) = (   0.3000000  -0.3000000   0.5000000), wk =   0.0400000
        k(   20) = (   0.2500000  -0.2500000   0.5000000), wk =   0.0400000
        k(   21) = (   0.2000000  -0.2000000   0.5000000), wk =   0.0400000
        k(   22) = (   0.1500000  -0.1500000   0.5000000), wk =   0.0400000
        k(   23) = (   0.1000000  -0.1000000   0.5000000), wk =   0.0400000
        k(   24) = (   0.0500000  -0.0500000   0.5000000), wk =   0.0400000
        k(   25) = (   0.0000000   0.0000000   0.5000000), wk =   0.0400000
        k(   26) = (   0.0000000   0.0000000   0.4545455), wk =   0.0400000
        k(   27) = (   0.0000000   0.0000000   0.4090909), wk =   0.0400000
        k(   28) = (   0.0000000   0.0000000   0.3636364), wk =   0.0400000
        k(   29) = (   0.0000000   0.0000000   0.3181818), wk =   0.0400000
        k(   30) = (   0.0000000   0.0000000   0.2727273), wk =   0.0400000
        k(   31) = (   0.0000000   0.0000000   0.2272727), wk =   0.0400000
        k(   32) = (   0.0000000   0.0000000   0.1818182), wk =   0.0400000
        k(   33) = (   0.0000000   0.0000000   0.1363636), wk =   0.0400000
        k(   34) = (   0.0000000   0.0000000   0.0909091), wk =   0.0400000
        k(   35) = (   0.0000000   0.0000000   0.0454545), wk =   0.0400000
        k(   36) = (   0.0000000   0.0000000   0.0000000), wk =   0.0400000
        k(   37) = (   0.0178571   0.0178571   0.0178571), wk =   0.0400000
        k(   38) = (   0.0357143   0.0357143   0.0357143), wk =   0.0400000
        k(   39) = (   0.0535714   0.0535714   0.0535714), wk =   0.0400000
        k(   40) = (   0.0714286   0.0714286   0.0714286), wk =   0.0400000
        k(   41) = (   0.0892857   0.0892857   0.0892857), wk =   0.0400000
        k(   42) = (   0.1071429   0.1071429   0.1071429), wk =   0.0400000
        k(   43) = (   0.1250000   0.1250000   0.1250000), wk =   0.0400000
        k(   44) = (   0.1428571   0.1428571   0.1428571), wk =   0.0400000
        k(   45) = (   0.1607143   0.1607143   0.1607143), wk =   0.0400000
        k(   46) = (   0.1785714   0.1785714   0.1785714), wk =   0.0400000
        k(   47) = (   0.1964286   0.1964286   0.1964286), wk =   0.0400000
        k(   48) = (   0.2142857   0.2142857   0.2142857), wk =   0.0400000
        k(   49) = (   0.2321429   0.2321429   0.2321429), wk =   0.0400000
        k(   50) = (   0.2500000   0.2500000   0.2500000), wk =   0.0400000

     Dense  grid:    11537 G-vectors     FFT dimensions: (  32,  32,  32)

     Smooth grid:     8247 G-vectors     FFT dimensions: (  27,  27,  27)

     Estimated max dynamical RAM per process >      11.36Mb

     Check: negative/imaginary core charge=   -0.000002    0.000000

     The potential is recalculated from file :
     ./pwscf.save/charge-density.dat

     Starting wfc are    4 randomized atomic wfcs +    4 random wfc

     Band Structure Calculation
     Davidson diagonalization with overlap

     Computing kpt #:     1
     total cpu time spent up to now is        0.9 secs

     Computing kpt #:     2
     total cpu time spent up to now is        1.2 secs

     Computing kpt #:     3
     total cpu time spent up to now is        1.5 secs

     Computing kpt #:     4
     total cpu time spent up to now is        1.9 secs

     Computing kpt #:     5
     total cpu time spent up to now is        2.2 secs

     Computing kpt #:     6
     total cpu time spent up to now is        2.4 secs

     Computing kpt #:     7
     total cpu time spent up to now is        2.7 secs

     Computing kpt #:     8
     total cpu time spent up to now is        3.0 secs

     Computing kpt #:     9
     total cpu time spent up to now is        3.3 secs

     Computing kpt #:    10
     total cpu time spent up to now is        3.5 secs

     Computing kpt #:    11
     total cpu time spent up to now is        3.8 secs

     Computing kpt #:    12
     total cpu time spent up to now is        4.1 secs

     Computing kpt #:    13
     total cpu time spent up to now is        4.3 secs

     Computing kpt #:    14
     total cpu time spent up to now is        4.7 secs

     Computing kpt #:    15
     total cpu time spent up to now is        5.0 secs

     Computing kpt #:    16
     total cpu time spent up to now is        5.3 secs

     Computing kpt #:    17
     total cpu time spent up to now is        5.6 secs

     Computing kpt #:    18
     total cpu time spent up to now is        5.8 secs

     Computing kpt #:    19
     total cpu time spent up to now is        6.1 secs

     Computing kpt #:    20
     total cpu time spent up to now is        6.3 secs

     Computing kpt #:    21
     total cpu time spent up to now is        6.6 secs

     Computing kpt #:    22
     total cpu time spent up to now is        6.8 secs

     Computing kpt #:    23
     total cpu time spent up to now is        7.1 secs

     Computing kpt #:    24
     total cpu time spent up to now is        7.4 secs

     Computing kpt #:    25
     total cpu time spent up to now is        7.7 secs

     Computing kpt #:    26
     total cpu time spent up to now is        8.0 secs

     Computing kpt #:    27
     total cpu time spent up to now is        8.3 secs

     Computing kpt #:    28
     total cpu time spent up to now is        8.6 secs

     Computing kpt #:    29
     total cpu time spent up to now is        8.9 secs

     Computing kpt #:    30
     total cpu time spent up to now is        9.2 secs

     Computing kpt #:    31
     total cpu time spent up to now is        9.5 secs

     Computing kpt #:    32
     total cpu time spent up to now is        9.9 secs

     Computing kpt #:    33
     total cpu time spent up to now is       10.2 secs

     Computing kpt #:    34
     total cpu time spent up to now is       10.5 secs

     Computing kpt #:    35
     total cpu time spent up to now is       10.8 secs

     Computing kpt #:    36
     total cpu time spent up to now is       11.1 secs

     Computing kpt #:    37
     total cpu time spent up to now is       11.3 secs

     Computing kpt #:    38
     total cpu time spent up to now is       11.6 secs

     Computing kpt #:    39
     total cpu time spent up to now is       12.0 secs

     Computing kpt #:    40
     total cpu time spent up to now is       12.3 secs

     Computing kpt #:    41
     total cpu time spent up to now is       12.7 secs

     Computing kpt #:    42
     total cpu time spent up to now is       12.9 secs

     Computing kpt #:    43
     total cpu time spent up to now is       13.2 secs

     Computing kpt #:    44
     total cpu time spent up to now is       13.5 secs

     Computing kpt #:    45
     total cpu time spent up to now is       13.8 secs

     Computing kpt #:    46
     total cpu time spent up to now is       14.0 secs

     Computing kpt #:    47
     total cpu time spent up to now is       14.3 secs

     Computing kpt #:    48
     total cpu time spent up to now is       14.6 secs

     Computing kpt #:    49
     total cpu time spent up to now is       14.9 secs

     Computing kpt #:    50
     total cpu time spent up to now is       15.2 secs

     ethr =  1.43E-09,  avg # of iterations = 20.0

     total cpu time spent up to now is       15.2 secs

     End of band structure calculation

          k = 0.0000 0.0000 0.0000 (  1055 PWs)   bands (ev):

    -8.6151   5.5972   5.5972   5.5972  11.7080  14.6855  14.6855  14.6855

          k = 0.0000 0.0619 0.0000 (  1031 PWs)   bands (ev):

    -8.5875   5.4410   5.5425   5.5425  11.8933  14.6171  14.6171  14.7236

          k = 0.0000 0.1237 0.0000 (  1016 PWs)   bands (ev):

    -8.5056   5.0331   5.3832   5.3832  12.3773  14.4884  14.4884  14.8382

          k = 0.0000 0.1856 0.0000 (  1008 PWs)   bands (ev):

    -8.3720   4.4916   5.1330   5.1330  13.0108  14.2751  14.4156  14.4156

          k = 0.0000 0.2474 0.0000 (  1020 PWs)   bands (ev):

    -8.1917   3.9137   4.8127   4.8127  13.4147  13.6557  14.4603  14.4603

          k = 0.0000 0.3093 0.0000 (  1020 PWs)   bands (ev):

    -7.9715   3.3615   4.4474   4.4474  12.6328  14.2076  14.6420  14.6420

          k = 0.0000 0.3712 0.0000 (  1028 PWs)   bands (ev):

    -7.7212   2.8738   4.0621   4.0621  11.9314  14.5548  14.9606  14.9606

          k = 0.0000 0.4330 0.0000 (  1044 PWs)   bands (ev):

    -7.4529   2.4755   3.6791   3.6791  11.3114  14.4950  15.4085  15.4085

          k = 0.0000 0.4949 0.0000 (  1036 PWs)   bands (ev):

    -7.1812   2.1831   3.3171   3.3171  10.7733  13.8593  15.9763  15.9763

          k = 0.0000 0.5567 0.0000 (  1032 PWs)   bands (ev):

    -6.9223   2.0050   2.9906   2.9906  10.3177  12.8539  16.6547  16.6547

          k = 0.0000 0.6186 0.0000 (  1032 PWs)   bands (ev):

    -6.6918   1.9391   2.7108   2.7108   9.9446  11.7751  17.4351  17.4351

          k = 0.0000 0.6804 0.0000 (  1032 PWs)   bands (ev):

    -6.5027   1.9685   2.4857   2.4857   9.6544  10.7873  18.3093  18.3093

          k = 0.0000 0.7423 0.0000 (  1032 PWs)   bands (ev):

    -6.3639   2.0566   2.3211   2.3211   9.4470   9.9900  19.2662  19.2662

          k = 0.0000 0.8042 0.0000 (  1048 PWs)   bands (ev):

    -6.2798   2.1483   2.2210   2.2210   9.3226   9.4654  20.2775  20.2775

          k = 0.0000 0.8660 0.0000 (  1048 PWs)   bands (ev):

    -6.2517   2.1873   2.1873   2.1873   9.2811   9.2811  21.0234  21.0234

          k = 0.0433 0.8227 0.0000 (  1048 PWs)   bands (ev):

    -6.2789   2.1208   2.2203   2.2475   9.3571   9.4270  20.1134  20.1430

          k = 0.0866 0.7794 0.0000 (  1038 PWs)   bands (ev):

    -6.3561   1.9388   2.3178   2.4232   9.5821   9.8469  18.7486  18.8696

          k = 0.1299 0.7361 0.0000 (  1034 PWs)   bands (ev):

    -6.4719   1.6821   2.4760   2.7014   9.9447  10.4995  17.4211  17.6052

          k = 0.1732 0.6928 0.0000 (  1046 PWs)   bands (ev):

    -6.6109   1.3942   2.6877   3.0636  10.4175  11.3398  16.1808  16.4370

          k = 0.2165 0.6495 0.0000 (  1038 PWs)   bands (ev):

    -6.7570   1.1099   2.9417   3.4883  10.9334  12.3314  15.0496  15.4592

          k = 0.2598 0.6062 0.0000 (  1026 PWs)   bands (ev):

    -6.8956   0.8535   3.2206   3.9506  11.3258  13.4469  14.0494  14.8570

          k = 0.3031 0.5629 0.0000 (  1028 PWs)   bands (ev):

    -7.0151   0.6414   3.4996   4.4181  11.3409  13.2076  14.6659  14.9054

          k = 0.3464 0.5196 0.0000 (  1036 PWs)   bands (ev):

    -7.1064   0.4837   3.7448   4.8434  11.0191  12.5596  15.5966  15.9702

          k = 0.3897 0.4763 0.0000 (  1038 PWs)   bands (ev):

    -7.1636   0.3868   3.9162   5.1560  10.6771  12.1461  16.6585  17.3327

          k = 0.4330 0.4330 0.0000 (  1024 PWs)   bands (ev):

    -7.1830   0.3542   3.9783   5.2738  10.5377  12.0033  17.6666  18.3322

          k = 0.3936 0.3936 0.0000 (  1036 PWs)   bands (ev):

    -7.2225   0.4443   4.0039   5.2806  10.5807  12.0339  17.4803  17.8123

          k = 0.3543 0.3543 0.0000 (  1039 PWs)   bands (ev):

    -7.3338   0.7066   4.0798   5.3007  10.7091  12.1257  17.1184  17.2461

          k = 0.3149 0.3149 0.0000 (  1035 PWs)   bands (ev):

    -7.4987   1.1196   4.2032   5.3321  10.9216  12.2778  16.6963  16.7639

          k = 0.2756 0.2756 0.0000 (  1031 PWs)   bands (ev):

    -7.6945   1.6548   4.3688   5.3721  11.2145  12.4891  16.1622  16.4765

          k = 0.2362 0.2362 0.0000 (  1029 PWs)   bands (ev):

    -7.8998   2.2819   4.5691   5.4171  11.5785  12.7571  15.6270  16.2781

          k = 0.1968 0.1968 0.0000 (  1021 PWs)   bands (ev):

    -8.0972   2.9693   4.7928   5.4634  11.9878  13.0777  15.0720  16.1790

          k = 0.1575 0.1575 0.0000 (  1023 PWs)   bands (ev):

    -8.2732   3.6824   5.0246   5.5069  12.3633  13.4432  14.5438  16.1844

          k = 0.1181 0.1181 0.0000 (  1017 PWs)   bands (ev):

    -8.4185   4.3771   5.2447   5.5444  12.4835  13.8383  14.2756  15.6256

          k = 0.0787 0.0787 0.0000 (  1015 PWs)   bands (ev):

    -8.5264   4.9908   5.4292   5.5731  12.2081  14.2311  14.4158  15.1149

          k = 0.0394 0.0394 0.0000 (  1023 PWs)   bands (ev):

    -8.5928   5.4325   5.5533   5.5911  11.8559  14.5527  14.6191  14.7948

          k = 0.0000 0.0000 0.0000 (  1055 PWs)   bands (ev):

    -8.6151   5.5972   5.5972   5.5972  11.7080  14.6855  14.6855  14.6855

          k = 0.0309 0.0309 0.0309 (  1031 PWs)   bands (ev):

    -8.5944   5.4338   5.5794   5.5794  11.8449  14.5792  14.5792  14.8133

          k = 0.0619 0.0619 0.0619 (  1025 PWs)   bands (ev):

    -8.5330   5.0016   5.5240   5.5240  12.1835  14.2832  14.2832  15.2110

          k = 0.0928 0.0928 0.0928 (  1016 PWs)   bands (ev):

    -8.4330   4.4155   5.4250   5.4250  12.5903  13.8962  13.8962  15.8965

          k = 0.1237 0.1237 0.1237 (  1019 PWs)   bands (ev):

    -8.2982   3.7729   5.2754   5.2754  12.9891  13.5368  13.5368  16.4613

          k = 0.1546 0.1546 0.1546 (  1025 PWs)   bands (ev):

    -8.1342   3.1383   5.0702   5.0702  13.2763  13.2763  13.3732  16.6602

          k = 0.1856 0.1856 0.1856 (  1037 PWs)   bands (ev):

    -7.9487   2.5541   4.8101   4.8101  13.1450  13.1450  13.7596  16.9335

          k = 0.2165 0.2165 0.2165 (  1037 PWs)   bands (ev):

    -7.7519   2.0503   4.5024   4.5024  13.1495  13.1495  14.1623  17.2686

          k = 0.2474 0.2474 0.2474 (  1037 PWs)   bands (ev):

    -7.5560   1.6511   4.1601   4.1601  13.2817  13.2817  14.5865  17.6566

          k = 0.2784 0.2784 0.2784 (  1043 PWs)   bands (ev):

    -7.3746   1.3765   3.7990   3.7990  13.5258  13.5258  15.0272  18.0881

          k = 0.3093 0.3093 0.3093 (  1043 PWs)   bands (ev):

    -7.2206   1.2427   3.4344   3.4344  13.8612  13.8612  15.4649  18.5488

          k = 0.3402 0.3402 0.3402 (  1025 PWs)   bands (ev):

    -7.1038   1.2597   3.0802   3.0802  14.2636  14.2636  15.8541  19.0134

          k = 0.3712 0.3712 0.3712 (  1025 PWs)   bands (ev):

    -7.0277   1.4288   2.7474   2.7474  14.7040  14.7040  16.0966  19.4348

          k = 0.4021 0.4021 0.4021 (  1031 PWs)   bands (ev):

    -6.9891   1.7414   2.4449   2.4449  15.1446  15.1446  16.0275  19.7395

          k = 0.4330 0.4330 0.4330 (  1004 PWs)   bands (ev):

    -6.9788   2.1790   2.1790   2.1790  15.5340  15.5340  15.5340  19.8548

     Writing output data file pwscf.save

     init_run     :      0.66s CPU      0.52s WALL (       1 calls)
     electrons    :     29.73s CPU     14.55s WALL (       1 calls)

     Called by init_run:
     wfcinit      :      0.00s CPU      0.00s WALL (       1 calls)
     wfcinit:atom :      0.02s CPU      0.02s WALL (      50 calls)
     wfcinit:wfcr :      1.75s CPU      0.86s WALL (      50 calls)
     potinit      :      0.03s CPU      0.03s WALL (       1 calls)

     Called by electrons:
     c_bands      :     29.73s CPU     14.55s WALL (       1 calls)
     v_of_rho     :      0.02s CPU      0.02s WALL (       1 calls)
     v_h          :      0.00s CPU      0.00s WALL (       1 calls)
     v_xc         :      0.02s CPU      0.02s WALL (       1 calls)
     newd         :      0.03s CPU      0.07s WALL (       1 calls)

     Called by c_bands:
     init_us_2    :      0.11s CPU      0.05s WALL (      50 calls)
     cegterg      :     27.59s CPU     13.44s WALL (      63 calls)

     Called by sum_band:

     Called by *egterg:
     h_psi        :     24.38s CPU     11.89s WALL (    1115 calls)
     s_psi        :      0.27s CPU      0.18s WALL (    1115 calls)
     g_psi        :      0.16s CPU      0.07s WALL (    1002 calls)
     cdiaghg      :      2.30s CPU      1.03s WALL (    1052 calls)
     cegterg:over :      0.61s CPU      0.40s WALL (    1002 calls)
     cegterg:upda :      1.03s CPU      0.33s WALL (    1002 calls)
     cegterg:last :      0.38s CPU      0.21s WALL (     233 calls)

     Called by h_psi:
     h_psi:pot    :     24.27s CPU     11.83s WALL (    1115 calls)
     h_psi:calbec :      0.34s CPU      0.22s WALL (    1115 calls)
     vloc_psi     :     23.12s CPU     11.38s WALL (    1115 calls)
     add_vuspsi   :      0.64s CPU      0.20s WALL (    1115 calls)

     General routines
     calbec       :      0.34s CPU      0.21s WALL (    1115 calls)
     fft          :      0.00s CPU      0.01s WALL (      13 calls)
     ffts         :      0.02s CPU      0.00s WALL (       1 calls)
     fftw         :     21.84s CPU     10.62s WALL (   11468 calls)
     interpolate  :      0.02s CPU      0.00s WALL (       1 calls)
     davcio       :      0.00s CPU      0.00s WALL (      50 calls)

     Parallel routines
     fft_scatter  :      0.58s CPU      0.41s WALL (   11482 calls)

     PWSCF        :    30.77s CPU        15.48s WALL


   This run was terminated on:  21:45: 4  25Feb2021            

=------------------------------------------------------------------------------=
   JOB DONE.
=------------------------------------------------------------------------------=
