element =  Y
struct =  hcp
nbands =  -4
path =  GMKGA
kpts =  (8,8,4)
lattice constant a =  3.647
lattice constant b =  3.647
lattice constant c =  5.731
alpha angle =  90.0

  ___ ___ ___ _ _ _  
 |   |   |_  | | | | 
 | | | | | . | | | | 
 |__ |  _|___|_____|  1.3.1b1
 |___|_|             

User:   inukai@DESKTOP-12SE80T
Date:   Thu Feb 11 21:23:25 2021
Arch:   x86_64
Pid:    14747
Python: 3.6.9
gpaw:   /usr/lib/python3/dist-packages/gpaw
_gpaw:  /usr/lib/python3/dist-packages/_gpaw.cpython-36m-x86_64-linux-gnu.so
ase:    /home/inukai/hotcent/ase-3.19.3/ase (version 3.19.3)
numpy:  /home/inukai/.local/lib/python3.6/site-packages/numpy (version 1.19.5)
scipy:  /home/inukai/.local/lib/python3.6/site-packages/scipy (version 1.5.4)
units:  Angstrom and eV
cores:  1

Input parameters:
  kpts: [8 8 4]
  maxiter: 1500
  mixer: {backend: pulay,
          beta: 0.01,
          method: separate,
          nmaxold: 11,
          weight: 100.0}
  mode: {ecut: 400.0,
         name: pw}
  occupations: {name: fermi-dirac,
                width: 0.02}
  spinpol: True
  xc: PBE

System changes: positions, numbers, cell, pbc, initial_charges, initial_magmoms 

Initialize ...

Y-setup:
  name: Yttrium
  id: 5960f59baf8c0e8d097f1949c1991665
  Z: 39
  valence: 11
  core: 28
  charge: 0.0
  file: /usr/share/gpaw-setups/Y.PBE.gz
  cutoffs: 1.28(comp), 2.39(filt), 1.70(core), lmax=2
  valence states:
                energy  radius
    4s(2.00)   -47.973   1.328
    5s(2.00)    -4.101   1.328
    4p(6.00)   -27.921   1.318
    5p(0.00)    -1.441   1.318
    4d(1.00)    -2.517   1.286
    *d          24.695   1.286

  Using partial waves for Y as LCAO basis

Reference energy: -184182.767865

Spin-polarized calculation.
Magnetic moment:  0.000000

Occupation numbers:
  Fermi-Dirac: width=0.0200 eV

Convergence criteria:
  Maximum total energy change: 0.0005 eV / electron
  Maximum integral of absolute density change: 0.0001 electrons
  Maximum integral of absolute eigenstate change: 4e-08 eV^2
  Maximum number of iterations: 1500

Symmetries present (total): 12

  ( 1  1  0)  ( 1  1  0)  ( 1  0  0)  ( 1  0  0)  ( 0  1  0)  ( 0  1  0)
  ( 0 -1  0)  ( 0 -1  0)  ( 0  1  0)  ( 0  1  0)  (-1 -1  0)  (-1 -1  0)
  ( 0  0  1)  ( 0  0 -1)  ( 0  0  1)  ( 0  0 -1)  ( 0  0  1)  ( 0  0 -1)

  ( 0 -1  0)  ( 0 -1  0)  (-1  0  0)  (-1  0  0)  (-1 -1  0)  (-1 -1  0)
  (-1  0  0)  (-1  0  0)  ( 1  1  0)  ( 1  1  0)  ( 1  0  0)  ( 1  0  0)
  ( 0  0  1)  ( 0  0 -1)  ( 0  0  1)  ( 0  0 -1)  ( 0  0  1)  ( 0  0 -1)
Note: your k-points are not as symmetric as your crystal!

256 k-points: 8 x 8 x 4 Monkhorst-Pack grid
40 k-points in the irreducible part of the Brillouin zone
       k-points in crystal coordinates                weights
   0:     0.06250000   -0.06250000    0.12500000          4/256
   1:     0.06250000   -0.06250000    0.37500000          4/256
   2:     0.06250000    0.06250000    0.12500000          4/256
   3:     0.06250000    0.06250000    0.37500000          4/256
   4:     0.18750000   -0.18750000    0.12500000          4/256
   5:     0.18750000   -0.18750000    0.37500000          4/256
   6:     0.18750000   -0.06250000    0.12500000          8/256
   7:     0.18750000   -0.06250000    0.37500000          8/256
   8:     0.18750000    0.06250000    0.12500000          8/256
   9:     0.18750000    0.06250000    0.37500000          8/256
          ...
  39:     0.43750000    0.43750000    0.37500000          4/256

Wave functions: Plane wave expansion
  Cutoff energy: 400.000 eV
  Number of coefficients (min, max): 1176, 1211
  Using FFTW library
  Eigensolver: None  MatrixOperator buffer_size: default value or 
                              see value of nblock in input file
Diagonalizer layout: Serial LAPACKOrthonormalizer layout: Serial LAPACK 

Davidson(niter=1, smin=None, normalize=True) 

Densities:
  Coarse grid: 15*15*27 grid
  Fine grid: 30*30*54 grid
  Total Charge: 0.000000 

Density mixing:
  Method: separate
  Backend: pulay
  Linear mixing parameter: 0.01
  Mixing with 11 old densities
  Damping of long wave oscillations: 100 

Hamiltonian:
  XC and Coulomb potentials evaluated on a 30*30*54 grid
  Using the PBE Exchange-Correlation functional
 

Memory estimate:
  Process memory now: 929.95 MiB
  Calculator: 52.79 MiB
    Density: 4.56 MiB
      Arrays: 1.62 MiB
      Localized functions: 0.89 MiB
      Mixer: 2.04 MiB
    Hamiltonian: 1.22 MiB
      Arrays: 1.21 MiB
      XC: 0.00 MiB
      Poisson: 0.00 MiB
      vbar: 0.02 MiB
    Wavefunctions: 47.01 MiB
      Arrays psit_nG: 38.44 MiB
      Eigensolver: 0.68 MiB
      Projections: 1.14 MiB
      Projectors: 5.49 MiB
      Overlap op: 0.49 MiB
      PW-descriptor: 0.78 MiB

Total number of cores used: 1

Number of atoms: 2
Number of atomic orbitals: 26
Number of bands in calculation: 26
Bands to converge: occupied states only
Number of valence electrons: 22

... initialized

Initializing position-dependent things.

Density initialized from atomic densities
Creating initial wave functions:
  26 bands from LCAO basis set

                  
                  
                  
                  
         Y        
                  
                  
                  
       Y          
                  
                  
                  
                  

Positions:
   0 Y      0.000000    0.000000    0.000000
   1 Y     -0.000000    2.105596    2.865500

Unit cell:
           periodic     x           y           z      points  spacing
  1. axis:    yes    3.647000    0.000000    0.000000    15     0.2106
  2. axis:    yes   -1.823500    3.158395    0.000000    15     0.2106
  3. axis:    yes    0.000000    0.000000    5.731000    27     0.2123

  Lengths:   3.647000   3.647000   5.731000
  Angles:   90.000000  90.000000 120.000000

Effective grid spacing dv^(1/3) = 0.2215

                     log10-error:    total        iterations:
           time      wfs    density  energy       fermi  poisson  magmom
iter:   1  21:23:36  +2.02   +inf    -9.419412    3               -0.0000
iter:   2  21:23:41  -0.44   +inf    -9.452972    3               -0.0000
iter:   3  21:23:46  -1.15   +inf    -9.458460    2               +0.0000
iter:   4  21:23:53  -1.86  -1.47    -9.454270    3               -0.0000
iter:   5  21:23:59  -1.45  -1.47    -9.361987    5               -0.0000
iter:   6  21:24:05  -0.67  -1.60    -9.342166    5               -0.0000
iter:   7  21:24:11  -1.92  -2.11    -9.362069    4               +0.0000
iter:   8  21:24:17  -2.04  -2.05    -9.343780    3               -0.0000
iter:   9  21:24:23  -1.81  -2.22    -9.326230    4               -0.0000
iter:  10  21:24:29  -3.16  -2.73    -9.326090    3               -0.0000
iter:  11  21:24:35  -3.30  -2.75    -9.325305    3               +0.0000
iter:  12  21:24:42  -3.49  -2.95    -9.325052    3               +0.0000
iter:  13  21:24:48  -4.48  -3.40    -9.325044    3               -0.0000
iter:  14  21:24:54  -5.24  -3.48    -9.325044    2               -0.0000
iter:  15  21:25:00  -5.63  -3.63    -9.325049    2               -0.0000
iter:  16  21:25:06  -5.53  -3.58    -9.325046    2               -0.0000
iter:  17  21:25:12  -6.22  -3.83    -9.325047    2               -0.0000
iter:  18  21:25:18  -6.49  -4.58    -9.325047    2               -0.0000
iter:  19  21:25:25  -7.37  -4.78    -9.325047    2               -0.0000
iter:  20  21:25:31  -7.71  -4.82    -9.325047    2               -0.0000

Converged after 20 iterations.

Dipole moment: (-2.951905, 1.704283, -0.000000) |e|*Ang

Total magnetic moment: -0.000000
Local magnetic moments:
   0 Y  0.000000
   1 Y  0.000000

Energy contributions relative to reference atoms: (reference = -184182.767865)

Kinetic:         +1.039131
Potential:       +0.181379
External:        +0.000000
XC:             -10.204206
Entropy (-ST):   -0.006941
Local:           -0.337881
--------------------------
Free energy:     -9.328518
Extrapolated:    -9.325047

Spin contamination: 0.000000 electrons
Fermi level: 6.35781

Warning: Showing only first 2 kpts
                      Up                     Down
 Kpt  Band  Eigenvalues  Occupancy  Eigenvalues  Occupancy
  0     9      4.55882    0.01562      4.55882    0.01562
  0    10      7.05344    0.00000      7.05344    0.00000
  0    11      7.88966    0.00000      7.88966    0.00000
  0    12      8.15561    0.00000      8.15561    0.00000

  1     9      3.81456    0.01562      3.81456    0.01562
  1    10      7.00713    0.00000      7.00713    0.00000
  1    11      7.65119    0.00000      7.65119    0.00000
  1    12      7.90747    0.00000      7.90747    0.00000


Input parameters:
  convergence: {bands: all}
  eigensolver: {name: cg,
                niter: 5}
  fixdensity: True
  kpts: {npoints: 50,
         path: GMKGA}
  nbands: -4
  symmetry: off

Initialize ...

Y-setup:
  name: Yttrium
  id: 5960f59baf8c0e8d097f1949c1991665
  Z: 39
  valence: 11
  core: 28
  charge: 0.0
  file: /usr/share/gpaw-setups/Y.PBE.gz
  cutoffs: 1.28(comp), 2.39(filt), 1.70(core), lmax=2
  valence states:
                energy  radius
    4s(2.00)   -47.973   1.328
    5s(2.00)    -4.101   1.328
    4p(6.00)   -27.921   1.318
    5p(0.00)    -1.441   1.318
    4d(1.00)    -2.517   1.286
    *d          24.695   1.286

  Using partial waves for Y as LCAO basis

Reference energy: -184182.767865

Spin-polarized calculation.
Magnetic moment:  0.000000

Occupation numbers:
  Fixed Fermi level
  Fermi-Dirac: width=0.0200 eV

Convergence criteria:
  Maximum total energy change: 0.0005 eV / electron
  Maximum integral of absolute density change: 0.0001 electrons
  Maximum integral of absolute eigenstate change: 4e-08 eV^2
  Maximum number of iterations: 1500

Symmetries present (total): 1

  ( 1  0  0)
  ( 0  1  0)
  ( 0  0  1)

50 k-points
50 k-points in the irreducible part of the Brillouin zone
       k-points in crystal coordinates                weights
   0:     0.00000000    0.00000000    0.00000000          1/50
   1:     0.03571429    0.00000000    0.00000000          1/50
   2:     0.07142857    0.00000000    0.00000000          1/50
   3:     0.10714286    0.00000000    0.00000000          1/50
   4:     0.14285714    0.00000000    0.00000000          1/50
   5:     0.17857143    0.00000000    0.00000000          1/50
   6:     0.21428571    0.00000000    0.00000000          1/50
   7:     0.25000000    0.00000000    0.00000000          1/50
   8:     0.28571429    0.00000000    0.00000000          1/50
   9:     0.32142857    0.00000000    0.00000000          1/50
          ...
  49:     0.00000000    0.00000000    0.50000000          1/50

Wave functions: Plane wave expansion
  Cutoff energy: 400.000 eV
  Number of coefficients (min, max): 1171, 1216
  Using FFTW library
  Eigensolver: None  MatrixOperator buffer_size: default value or 
                              see value of nblock in input file
Diagonalizer layout: Serial LAPACKOrthonormalizer layout: Serial LAPACK 

CG(niter=5, rtol=3.0e-01) 

No density mixing

Memory estimate:
  Process memory now: 1066.62 MiB
  Calculator: 42.84 MiB
    Density: 4.56 MiB
      Arrays: 1.62 MiB
      Localized functions: 0.89 MiB
      Mixer: 2.04 MiB
    Hamiltonian: 1.22 MiB
      Arrays: 1.21 MiB
      XC: 0.00 MiB
      Poisson: 0.00 MiB
      vbar: 0.02 MiB
    Wavefunctions: 37.06 MiB
      Arrays psit_nG: 27.83 MiB
      Eigensolver: 0.37 MiB
      Projections: 0.82 MiB
      Projectors: 6.84 MiB
      Overlap op: 0.28 MiB
      PW-descriptor: 0.92 MiB

Total number of cores used: 1

Number of atoms: 2
Number of atomic orbitals: 26
Number of bands in calculation: 15
Bands to converge: all
Number of valence electrons: 22

... initialized

Initializing position-dependent things.

Creating initial wave functions:
  15 bands from LCAO basis set

                  
                  
                  
                  
         Y        
                  
                  
                  
       Y          
                  
                  
                  
                  

Positions:
   0 Y      0.000000    0.000000    0.000000
   1 Y     -0.000000    2.105596    2.865500

Unit cell:
           periodic     x           y           z      points  spacing
  1. axis:    yes    3.647000    0.000000    0.000000    15     0.2106
  2. axis:    yes   -1.823500    3.158395    0.000000    15     0.2106
  3. axis:    yes    0.000000    0.000000    5.731000    27     0.2123

  Lengths:   3.647000   3.647000   5.731000
  Angles:   90.000000  90.000000 120.000000

Effective grid spacing dv^(1/3) = 0.2215

                     log10-error:    total        iterations:
           time      wfs    density  energy       fermi  poisson  magmom
iter:   1  21:25:48  +0.60          -10.763114    4               -0.0000
iter:   2  21:26:02  -0.46          -10.793403    5               -0.0000
iter:   3  21:26:17  -1.25          -10.797254    5               -0.0000
iter:   4  21:26:33  -2.10          -10.797904    5               -0.0000
iter:   5  21:26:50  -2.84          -10.798062    5               -0.0000
iter:   6  21:27:07  -3.64          -10.798082    5               -0.0000
iter:   7  21:27:24  -4.29          -10.798086    5               -0.0000
iter:   8  21:27:41  -5.05          -10.798086    5               -0.0000
iter:   9  21:27:53  -5.69          -10.798087    5               -0.0000
iter:  10  21:28:02  -6.40          -10.798087    5               -0.0000
iter:  11  21:28:09  -7.04          -10.798087    5               -0.0000
iter:  12  21:28:15  -7.66          -10.798087    5               -0.0000

Converged after 12 iterations.

Dipole moment: (-2.951905, 1.704283, -0.000000) |e|*Ang

Total magnetic moment: -0.000000
Local magnetic moments:
   0 Y  0.000000
   1 Y  0.000000

Energy contributions relative to reference atoms: (reference = -184182.767865)

Kinetic:         -0.436638
Potential:       +0.181370
External:        +0.000000
XC:             -10.204211
Entropy (-ST):   -0.001461
Local:           -0.337876
--------------------------
Free energy:    -10.798817
Extrapolated:   -10.798087

Spin contamination: 0.000000 electrons
Fixed Fermi level: 6.35781

Warning: Showing only first 2 kpts
                      Up                     Down
 Kpt  Band  Eigenvalues  Occupancy  Eigenvalues  Occupancy
  0     9      4.55770    0.02000      4.55770    0.02000
  0    10      7.22723    0.00000      7.22723    0.00000
  0    11      8.14117    0.00000      8.14117    0.00000
  0    12      8.14610    0.00000      8.14610    0.00000

  1     9      4.58350    0.02000      4.58350    0.02000
  1    10      7.19927    0.00000      7.19927    0.00000
  1    11      8.04817    0.00000      8.04817    0.00000
  1    12      8.16753    0.00000      8.16753    0.00000


Timing:                              incl.     excl.
-----------------------------------------------------------
Hamiltonian:                         1.248     0.002   0.0% |
 Atomic:                             0.811     0.003   0.0% |
  XC Correction:                     0.808     0.808   0.3% |
 Calculate atomic Hamiltonians:      0.038     0.038   0.0% |
 Communicate:                        0.000     0.000   0.0% |
 Initialize Hamiltonian:             0.000     0.000   0.0% |
 Poisson:                            0.001     0.001   0.0% |
 XC 3D grid:                         0.396     0.396   0.1% |
LCAO initialization:                 6.850     0.198   0.1% |
 LCAO eigensolver:                   2.337     0.019   0.0% |
  Calculate projections:             0.014     0.014   0.0% |
  DenseAtomicCorrection:             0.056     0.056   0.0% |
  Distribute overlap matrix:         0.008     0.008   0.0% |
  Orbital Layouts:                   0.302     0.302   0.1% |
  Potential matrix:                  0.848     0.848   0.3% |
  Sum over cells:                    1.091     1.091   0.4% |
 LCAO to grid:                       3.497     3.497   1.2% |
 Set positions (LCAO WFS):           0.817     0.002   0.0% |
  Basic WFS set positions:           0.001     0.001   0.0% |
  Basis functions set positions:     0.000     0.000   0.0% |
  TCI: Calculate S, T, P:            0.813     0.813   0.3% |
PWDescriptor:                        0.047     0.047   0.0% |
Redistribute:                        0.000     0.000   0.0% |
SCF-cycle:                         279.102     2.984   1.0% |
 CG:                               140.785   130.329  44.8% |-----------------|
  CG: orthonormalize:               10.455     5.246   1.8% ||
   CG: overlap:                      3.444     3.444   1.2% |
   CG: overlap2:                     1.765     1.765   0.6% |
 Davidson:                          69.351    30.138  10.4% |---|
  calc. matrices:                   27.340    27.340   9.4% |---|
  diagonalize:                      10.261    10.261   3.5% ||
  rotate_psi:                        1.613     1.613   0.6% |
 Density:                            9.412     0.001   0.0% |
  Atomic density matrices:           0.068     0.068   0.0% |
  Mix:                               0.487     0.487   0.2% |
  Multipole moments:                 0.002     0.002   0.0% |
  Pseudo density:                    8.854     8.685   3.0% ||
   Symmetrize density:               0.169     0.169   0.1% |
 Hamiltonian:                       11.006     0.017   0.0% |
  Atomic:                            7.578     0.026   0.0% |
   XC Correction:                    7.552     7.552   2.6% ||
  Calculate atomic Hamiltonians:     0.335     0.335   0.1% |
  Communicate:                       0.000     0.000   0.0% |
  Poisson:                           0.008     0.008   0.0% |
  XC 3D grid:                        3.068     3.068   1.1% |
 Orthonormalize:                     0.749     0.017   0.0% |
  Band Layouts:                      0.020     0.004   0.0% |
   Inverse Cholesky:                 0.017     0.017   0.0% |
  calc_s_matrix:                     0.108     0.108   0.0% |
  projections:                       0.509     0.509   0.2% |
  rotate_psi:                        0.095     0.095   0.0% |
 Residuals:                          3.979     3.979   1.4% ||
 Subspace diag:                     40.837     0.428   0.1% |
  Band Layouts:                      2.867     0.117   0.0% |
   Diagonalize:                      2.657     2.657   0.9% |
   Distribute results:               0.093     0.093   0.0% |
  calc_h_matrix:                    35.150    35.150  12.1% |----|
  rotate_psi:                        2.391     2.391   0.8% |
Set symmetry:                        0.028     0.028   0.0% |
Other:                               3.530     3.530   1.2% |
-----------------------------------------------------------
Total:                                       290.806 100.0%

Date: Thu Feb 11 21:28:16 2021
element =  Y
struct =  hcp
kpts =  (8,8,4)
element =  Y
configuration =  [Kr] 4d1 5s2 5p0
valence =  ['4d', '5s', '5p']
occupations =  {'4d': 1, '5s': 2}
nls =  4d
rNum =  600
lmax =  d
*******************************************
Starting confinement parameter optimization
Adjustable parameters and initial values:
  Y_4d.r0 : 7.180959
  Y_5p.r0 : 7.180959
  Y_5s.r0 : 7.180959
  Y_n.r0 : 10.771439
*******************************************

OPT_VAL: 7.180959278180327   7.180959278180327   7.180959278180327   10.77143891727049
VCONF:
  Y_4d : PowerConfinement(r0=7.180959, s=2.000000)
  Y_5p : PowerConfinement(r0=7.180959, s=2.000000)
  Y_5s : PowerConfinement(r0=7.180959, s=2.000000)
  Y_n : PowerConfinement(r0=10.771439, s=2.000000)
RESIDUAL: 0.0

OPT_VAL: 7.3809592781803275   7.180959278180327   7.180959278180327   10.77143891727049
VCONF:
  Y_4d : PowerConfinement(r0=7.380959, s=2.000000)
  Y_5p : PowerConfinement(r0=7.180959, s=2.000000)
  Y_5s : PowerConfinement(r0=7.180959, s=2.000000)
  Y_n : PowerConfinement(r0=10.771439, s=2.000000)
RESIDUAL: 0.0

OPT_VAL: 7.180959278180327   7.3809592781803275   7.180959278180327   10.77143891727049
VCONF:
  Y_4d : PowerConfinement(r0=7.180959, s=2.000000)
  Y_5p : PowerConfinement(r0=7.380959, s=2.000000)
  Y_5s : PowerConfinement(r0=7.180959, s=2.000000)
  Y_n : PowerConfinement(r0=10.771439, s=2.000000)
RESIDUAL: 0.0

OPT_VAL: 7.180959278180327   7.180959278180327   7.3809592781803275   10.77143891727049
VCONF:
  Y_4d : PowerConfinement(r0=7.180959, s=2.000000)
  Y_5p : PowerConfinement(r0=7.180959, s=2.000000)
  Y_5s : PowerConfinement(r0=7.380959, s=2.000000)
  Y_n : PowerConfinement(r0=10.771439, s=2.000000)
RESIDUAL: 0.0

OPT_VAL: 7.180959278180327   7.180959278180327   7.180959278180327   10.97143891727049
VCONF:
  Y_4d : PowerConfinement(r0=7.180959, s=2.000000)
  Y_5p : PowerConfinement(r0=7.180959, s=2.000000)
  Y_5s : PowerConfinement(r0=7.180959, s=2.000000)
  Y_n : PowerConfinement(r0=10.971439, s=2.000000)
RESIDUAL: 0.0

OPT_VAL: 7.205959278180328   7.180959278180327   7.180959278180327   10.77143891727049
VCONF:
  Y_4d : PowerConfinement(r0=7.205959, s=2.000000)
  Y_5p : PowerConfinement(r0=7.180959, s=2.000000)
  Y_5s : PowerConfinement(r0=7.180959, s=2.000000)
  Y_n : PowerConfinement(r0=10.771439, s=2.000000)
RESIDUAL: 0.0

OPT_VAL: 7.180959278180327   7.205959278180328   7.180959278180327   10.77143891727049
VCONF:
  Y_4d : PowerConfinement(r0=7.180959, s=2.000000)
  Y_5p : PowerConfinement(r0=7.205959, s=2.000000)
  Y_5s : PowerConfinement(r0=7.180959, s=2.000000)
  Y_n : PowerConfinement(r0=10.771439, s=2.000000)
RESIDUAL: 0.0

OPT_VAL: 7.180959278180327   7.180959278180327   7.205959278180328   10.77143891727049
VCONF:
  Y_4d : PowerConfinement(r0=7.180959, s=2.000000)
  Y_5p : PowerConfinement(r0=7.180959, s=2.000000)
  Y_5s : PowerConfinement(r0=7.205959, s=2.000000)
  Y_n : PowerConfinement(r0=10.771439, s=2.000000)
RESIDUAL: 0.0

OPT_VAL: 7.180959278180327   7.180959278180327   7.180959278180327   10.79643891727049
VCONF:
  Y_4d : PowerConfinement(r0=7.180959, s=2.000000)
  Y_5p : PowerConfinement(r0=7.180959, s=2.000000)
  Y_5s : PowerConfinement(r0=7.180959, s=2.000000)
  Y_n : PowerConfinement(r0=10.796439, s=2.000000)
RESIDUAL: 0.0

OPT_VAL: 7.185959278180327   7.180959278180327   7.180959278180327   10.77143891727049
VCONF:
  Y_4d : PowerConfinement(r0=7.185959, s=2.000000)
  Y_5p : PowerConfinement(r0=7.180959, s=2.000000)
  Y_5s : PowerConfinement(r0=7.180959, s=2.000000)
  Y_n : PowerConfinement(r0=10.771439, s=2.000000)
RESIDUAL: 0.0

OPT_VAL: 7.180959278180327   7.185959278180327   7.180959278180327   10.77143891727049
VCONF:
  Y_4d : PowerConfinement(r0=7.180959, s=2.000000)
  Y_5p : PowerConfinement(r0=7.185959, s=2.000000)
  Y_5s : PowerConfinement(r0=7.180959, s=2.000000)
  Y_n : PowerConfinement(r0=10.771439, s=2.000000)
RESIDUAL: 0.0

OPT_VAL: 7.180959278180327   7.180959278180327   7.185959278180327   10.77143891727049
VCONF:
  Y_4d : PowerConfinement(r0=7.180959, s=2.000000)
  Y_5p : PowerConfinement(r0=7.180959, s=2.000000)
  Y_5s : PowerConfinement(r0=7.185959, s=2.000000)
  Y_n : PowerConfinement(r0=10.771439, s=2.000000)
RESIDUAL: 0.0

OPT_VAL: 7.180959278180327   7.180959278180327   7.180959278180327   10.776438917270491
VCONF:
  Y_4d : PowerConfinement(r0=7.180959, s=2.000000)
  Y_5p : PowerConfinement(r0=7.180959, s=2.000000)
  Y_5s : PowerConfinement(r0=7.180959, s=2.000000)
  Y_n : PowerConfinement(r0=10.776439, s=2.000000)
RESIDUAL: 0.0

*******************************************
Optimization finished after 13 iterations
Adjustable parameters and final values:
  Y_4d.r0 : 7.180959
  Y_5p.r0 : 7.180959
  Y_5s.r0 : 7.180959
  Y_n.r0 : 10.771439
*******************************************

VCONF:
  Y_4d : PowerConfinement(r0=7.180959, s=2.000000)
  Y_5p : PowerConfinement(r0=7.180959, s=2.000000)
  Y_5s : PowerConfinement(r0=7.180959, s=2.000000)
  Y_n : PowerConfinement(r0=10.771439, s=2.000000)
