
     Program PWSCF v.6.0 (svn rev. 13079) starts on 25Feb2021 at 15:52:54 

     This program is part of the open-source Quantum ESPRESSO suite
     for quantum simulation of materials; please cite
         "P. Giannozzi et al., J. Phys.:Condens. Matter 21 395502 (2009);
          URL http://www.quantum-espresso.org", 
     in publications or presentations arising from this work. More details at
     http://www.quantum-espresso.org/quote

     Parallel version (MPI), running on     1 processors
     Reading input from espresso.pwi
Warning: card &IONS ignored
Warning: card / ignored
Warning: card &CELL ignored
Warning: card / ignored

     Current dimensions of program PWSCF are:
     Max number of different atomic species (ntypx) = 10
     Max number of k-points (npk) =  40000
     Max angular momentum in pseudopotentials (lmaxx) =  3
     Message from routine input:
     WARNING: "startingwfc" set to atomic+random may spoil restart

     Atomic positions and unit cell read from directory:
     ./pwscf.save/


     IMPORTANT: XC functional enforced from input :
     Exchange-correlation      = PBE ( 1  4  3  4 0 0)
     Any further DFT definition will be discarded
     Please, verify this is what you really want


     Subspace diagonalization in iterative solution of the eigenvalue problem:
     a serial algorithm will be used


     G-vector sticks info
     --------------------
     sticks:   dense  smooth     PW     G-vecs:    dense   smooth      PW
     Sum         475     383    129                 6603     4729     935



     bravais-lattice index     =            0
     lattice parameter (alat)  =       5.6314  a.u.
     unit-cell volume          =     137.4740 (a.u.)^3
     number of atoms/cell      =            1
     number of atomic types    =            1
     number of electrons       =         6.00
     number of Kohn-Sham states=            7
     kinetic-energy cutoff     =      40.0000  Ry
     charge density cutoff     =     200.0000  Ry
     Exchange-correlation      = PBE ( 1  4  3  4 0 0)

     celldm(1)=   5.631371  celldm(2)=   0.000000  celldm(3)=   0.000000
     celldm(4)=   0.000000  celldm(5)=   0.000000  celldm(6)=   0.000000

     crystal axes: (cart. coord. in units of alat)
               a(1) = (  -0.577350   0.577350   0.577350 )  
               a(2) = (   0.577350  -0.577350   0.577350 )  
               a(3) = (   0.577350   0.577350  -0.577350 )  

     reciprocal axes: (cart. coord. in units 2 pi/alat)
               b(1) = (  0.000000  0.866025  0.866025 )  
               b(2) = (  0.866025  0.000000  0.866025 )  
               b(3) = (  0.866025  0.866025  0.000000 )  


     PseudoPot. # 1 for Se read from file:
     /home/inukai/tango/tests/1element/qe_fit_v2_Se/../pseudo/se_pbe_v1.uspp.F.UPF
     MD5 check sum: 1b3568f3a8ae88f9a2a0ad0698632c85
     Pseudo is Ultrasoft + core correction, Zval =  6.0
     Generated by new atomic code, or converted to UPF format
     Using radial grid of  877 points,  6 beta functions with: 
                l(1) =   0
                l(2) =   0
                l(3) =   1
                l(4) =   1
                l(5) =   2
                l(6) =   2
     Q(r) pseudized with  8 coefficients,  rinner =    1.300   1.300   1.300
                                                       1.300   1.300

     atomic species   valence    mass     pseudopotential
        Se             6.00    78.97100     Se( 1.00)

     48 Sym. Ops., with inversion, found


                                    s                        frac. trans.

      isym =  1     identity                                     

 cryst.   s( 1) = (     1          0          0      )
                  (     0          1          0      )
                  (     0          0          1      )

 cart.    s( 1) = (  1.0000000  0.0000000  0.0000000 )
                  (  0.0000000  1.0000000  0.0000000 )
                  (  0.0000000  0.0000000  1.0000000 )


      isym =  2     180 deg rotation - cart. axis [0,0,1]        

 cryst.   s( 2) = (     0          1          0      )
                  (     1          0          0      )
                  (    -1         -1         -1      )

 cart.    s( 2) = ( -1.0000000  0.0000000  0.0000000 )
                  (  0.0000000 -1.0000000  0.0000000 )
                  (  0.0000000  0.0000000  1.0000000 )


      isym =  3     180 deg rotation - cart. axis [0,1,0]        

 cryst.   s( 3) = (     0          0          1      )
                  (    -1         -1         -1      )
                  (     1          0          0      )

 cart.    s( 3) = ( -1.0000000  0.0000000  0.0000000 )
                  (  0.0000000  1.0000000  0.0000000 )
                  (  0.0000000  0.0000000 -1.0000000 )


      isym =  4     180 deg rotation - cart. axis [1,0,0]        

 cryst.   s( 4) = (    -1         -1         -1      )
                  (     0          0          1      )
                  (     0          1          0      )

 cart.    s( 4) = (  1.0000000  0.0000000  0.0000000 )
                  (  0.0000000 -1.0000000  0.0000000 )
                  (  0.0000000  0.0000000 -1.0000000 )


      isym =  5     180 deg rotation - cart. axis [1,1,0]        

 cryst.   s( 5) = (    -1          0          0      )
                  (     0         -1          0      )
                  (     1          1          1      )

 cart.    s( 5) = (  0.0000000  1.0000000  0.0000000 )
                  (  1.0000000  0.0000000  0.0000000 )
                  (  0.0000000  0.0000000 -1.0000000 )


      isym =  6     180 deg rotation - cart. axis [1,-1,0]       

 cryst.   s( 6) = (     0         -1          0      )
                  (    -1          0          0      )
                  (     0          0         -1      )

 cart.    s( 6) = (  0.0000000 -1.0000000  0.0000000 )
                  ( -1.0000000  0.0000000  0.0000000 )
                  (  0.0000000  0.0000000 -1.0000000 )


      isym =  7      90 deg rotation - cart. axis [0,0,-1]       

 cryst.   s( 7) = (     1          1          1      )
                  (     0          0         -1      )
                  (    -1          0          0      )

 cart.    s( 7) = (  0.0000000  1.0000000  0.0000000 )
                  ( -1.0000000  0.0000000  0.0000000 )
                  (  0.0000000  0.0000000  1.0000000 )


      isym =  8      90 deg rotation - cart. axis [0,0,1]        

 cryst.   s( 8) = (     0          0         -1      )
                  (     1          1          1      )
                  (     0         -1          0      )

 cart.    s( 8) = (  0.0000000 -1.0000000  0.0000000 )
                  (  1.0000000  0.0000000  0.0000000 )
                  (  0.0000000  0.0000000  1.0000000 )


      isym =  9     180 deg rotation - cart. axis [1,0,1]        

 cryst.   s( 9) = (    -1          0          0      )
                  (     1          1          1      )
                  (     0          0         -1      )

 cart.    s( 9) = (  0.0000000  0.0000000  1.0000000 )
                  (  0.0000000 -1.0000000  0.0000000 )
                  (  1.0000000  0.0000000  0.0000000 )


      isym = 10     180 deg rotation - cart. axis [-1,0,1]       

 cryst.   s(10) = (     0          0         -1      )
                  (     0         -1          0      )
                  (    -1          0          0      )

 cart.    s(10) = (  0.0000000  0.0000000 -1.0000000 )
                  (  0.0000000 -1.0000000  0.0000000 )
                  ( -1.0000000  0.0000000  0.0000000 )


      isym = 11      90 deg rotation - cart. axis [0,1,0]        

 cryst.   s(11) = (     1          1          1      )
                  (    -1          0          0      )
                  (     0         -1          0      )

 cart.    s(11) = (  0.0000000  0.0000000  1.0000000 )
                  (  0.0000000  1.0000000  0.0000000 )
                  ( -1.0000000  0.0000000  0.0000000 )


      isym = 12      90 deg rotation - cart. axis [0,-1,0]       

 cryst.   s(12) = (     0         -1          0      )
                  (     0          0         -1      )
                  (     1          1          1      )

 cart.    s(12) = (  0.0000000  0.0000000 -1.0000000 )
                  (  0.0000000  1.0000000  0.0000000 )
                  (  1.0000000  0.0000000  0.0000000 )


      isym = 13     180 deg rotation - cart. axis [0,1,1]        

 cryst.   s(13) = (     1          1          1      )
                  (     0         -1          0      )
                  (     0          0         -1      )

 cart.    s(13) = ( -1.0000000  0.0000000  0.0000000 )
                  (  0.0000000  0.0000000  1.0000000 )
                  (  0.0000000  1.0000000  0.0000000 )


      isym = 14     180 deg rotation - cart. axis [0,1,-1]       

 cryst.   s(14) = (    -1          0          0      )
                  (     0          0         -1      )
                  (     0         -1          0      )

 cart.    s(14) = ( -1.0000000  0.0000000  0.0000000 )
                  (  0.0000000  0.0000000 -1.0000000 )
                  (  0.0000000 -1.0000000  0.0000000 )


      isym = 15      90 deg rotation - cart. axis [-1,0,0]       

 cryst.   s(15) = (     0         -1          0      )
                  (     1          1          1      )
                  (    -1          0          0      )

 cart.    s(15) = (  1.0000000  0.0000000  0.0000000 )
                  (  0.0000000  0.0000000  1.0000000 )
                  (  0.0000000 -1.0000000  0.0000000 )


      isym = 16      90 deg rotation - cart. axis [1,0,0]        

 cryst.   s(16) = (     0          0         -1      )
                  (    -1          0          0      )
                  (     1          1          1      )

 cart.    s(16) = (  1.0000000  0.0000000  0.0000000 )
                  (  0.0000000  0.0000000 -1.0000000 )
                  (  0.0000000  1.0000000  0.0000000 )


      isym = 17     120 deg rotation - cart. axis [-1,-1,-1]     

 cryst.   s(17) = (     0          0          1      )
                  (     1          0          0      )
                  (     0          1          0      )

 cart.    s(17) = (  0.0000000  1.0000000  0.0000000 )
                  (  0.0000000  0.0000000  1.0000000 )
                  (  1.0000000  0.0000000  0.0000000 )


      isym = 18     120 deg rotation - cart. axis [-1,1,1]       

 cryst.   s(18) = (     1          0          0      )
                  (     0          0          1      )
                  (    -1         -1         -1      )

 cart.    s(18) = (  0.0000000 -1.0000000  0.0000000 )
                  (  0.0000000  0.0000000  1.0000000 )
                  ( -1.0000000  0.0000000  0.0000000 )


      isym = 19     120 deg rotation - cart. axis [1,1,-1]       

 cryst.   s(19) = (     0          1          0      )
                  (    -1         -1         -1      )
                  (     0          0          1      )

 cart.    s(19) = (  0.0000000  1.0000000  0.0000000 )
                  (  0.0000000  0.0000000 -1.0000000 )
                  ( -1.0000000  0.0000000  0.0000000 )


      isym = 20     120 deg rotation - cart. axis [1,-1,1]       

 cryst.   s(20) = (    -1         -1         -1      )
                  (     0          1          0      )
                  (     1          0          0      )

 cart.    s(20) = (  0.0000000 -1.0000000  0.0000000 )
                  (  0.0000000  0.0000000 -1.0000000 )
                  (  1.0000000  0.0000000  0.0000000 )


      isym = 21     120 deg rotation - cart. axis [1,1,1]        

 cryst.   s(21) = (     0          1          0      )
                  (     0          0          1      )
                  (     1          0          0      )

 cart.    s(21) = (  0.0000000  0.0000000  1.0000000 )
                  (  1.0000000  0.0000000  0.0000000 )
                  (  0.0000000  1.0000000  0.0000000 )


      isym = 22     120 deg rotation - cart. axis [-1,1,-1]      

 cryst.   s(22) = (     0          0          1      )
                  (     0          1          0      )
                  (    -1         -1         -1      )

 cart.    s(22) = (  0.0000000  0.0000000  1.0000000 )
                  ( -1.0000000  0.0000000  0.0000000 )
                  (  0.0000000 -1.0000000  0.0000000 )


      isym = 23     120 deg rotation - cart. axis [1,-1,-1]      

 cryst.   s(23) = (     1          0          0      )
                  (    -1         -1         -1      )
                  (     0          1          0      )

 cart.    s(23) = (  0.0000000  0.0000000 -1.0000000 )
                  ( -1.0000000  0.0000000  0.0000000 )
                  (  0.0000000  1.0000000  0.0000000 )


      isym = 24     120 deg rotation - cart. axis [-1,-1,1]      

 cryst.   s(24) = (    -1         -1         -1      )
                  (     1          0          0      )
                  (     0          0          1      )

 cart.    s(24) = (  0.0000000  0.0000000 -1.0000000 )
                  (  1.0000000  0.0000000  0.0000000 )
                  (  0.0000000 -1.0000000  0.0000000 )


      isym = 25     inversion                                    

 cryst.   s(25) = (    -1          0          0      )
                  (     0         -1          0      )
                  (     0          0         -1      )

 cart.    s(25) = ( -1.0000000  0.0000000  0.0000000 )
                  (  0.0000000 -1.0000000  0.0000000 )
                  (  0.0000000  0.0000000 -1.0000000 )


      isym = 26     inv. 180 deg rotation - cart. axis [0,0,1]   

 cryst.   s(26) = (     0         -1          0      )
                  (    -1          0          0      )
                  (     1          1          1      )

 cart.    s(26) = (  1.0000000  0.0000000  0.0000000 )
                  (  0.0000000  1.0000000  0.0000000 )
                  (  0.0000000  0.0000000 -1.0000000 )


      isym = 27     inv. 180 deg rotation - cart. axis [0,1,0]   

 cryst.   s(27) = (     0          0         -1      )
                  (     1          1          1      )
                  (    -1          0          0      )

 cart.    s(27) = (  1.0000000  0.0000000  0.0000000 )
                  (  0.0000000 -1.0000000  0.0000000 )
                  (  0.0000000  0.0000000  1.0000000 )


      isym = 28     inv. 180 deg rotation - cart. axis [1,0,0]   

 cryst.   s(28) = (     1          1          1      )
                  (     0          0         -1      )
                  (     0         -1          0      )

 cart.    s(28) = ( -1.0000000  0.0000000  0.0000000 )
                  (  0.0000000  1.0000000  0.0000000 )
                  (  0.0000000  0.0000000  1.0000000 )


      isym = 29     inv. 180 deg rotation - cart. axis [1,1,0]   

 cryst.   s(29) = (     1          0          0      )
                  (     0          1          0      )
                  (    -1         -1         -1      )

 cart.    s(29) = (  0.0000000 -1.0000000  0.0000000 )
                  ( -1.0000000  0.0000000  0.0000000 )
                  (  0.0000000  0.0000000  1.0000000 )


      isym = 30     inv. 180 deg rotation - cart. axis [1,-1,0]  

 cryst.   s(30) = (     0          1          0      )
                  (     1          0          0      )
                  (     0          0          1      )

 cart.    s(30) = (  0.0000000  1.0000000  0.0000000 )
                  (  1.0000000  0.0000000  0.0000000 )
                  (  0.0000000  0.0000000  1.0000000 )


      isym = 31     inv.  90 deg rotation - cart. axis [0,0,-1]  

 cryst.   s(31) = (    -1         -1         -1      )
                  (     0          0          1      )
                  (     1          0          0      )

 cart.    s(31) = (  0.0000000 -1.0000000  0.0000000 )
                  (  1.0000000  0.0000000  0.0000000 )
                  (  0.0000000  0.0000000 -1.0000000 )


      isym = 32     inv.  90 deg rotation - cart. axis [0,0,1]   

 cryst.   s(32) = (     0          0          1      )
                  (    -1         -1         -1      )
                  (     0          1          0      )

 cart.    s(32) = (  0.0000000  1.0000000  0.0000000 )
                  ( -1.0000000  0.0000000  0.0000000 )
                  (  0.0000000  0.0000000 -1.0000000 )


      isym = 33     inv. 180 deg rotation - cart. axis [1,0,1]   

 cryst.   s(33) = (     1          0          0      )
                  (    -1         -1         -1      )
                  (     0          0          1      )

 cart.    s(33) = (  0.0000000  0.0000000 -1.0000000 )
                  (  0.0000000  1.0000000  0.0000000 )
                  ( -1.0000000  0.0000000  0.0000000 )


      isym = 34     inv. 180 deg rotation - cart. axis [-1,0,1]  

 cryst.   s(34) = (     0          0          1      )
                  (     0          1          0      )
                  (     1          0          0      )

 cart.    s(34) = (  0.0000000  0.0000000  1.0000000 )
                  (  0.0000000  1.0000000  0.0000000 )
                  (  1.0000000  0.0000000  0.0000000 )


      isym = 35     inv.  90 deg rotation - cart. axis [0,1,0]   

 cryst.   s(35) = (    -1         -1         -1      )
                  (     1          0          0      )
                  (     0          1          0      )

 cart.    s(35) = (  0.0000000  0.0000000 -1.0000000 )
                  (  0.0000000 -1.0000000  0.0000000 )
                  (  1.0000000  0.0000000  0.0000000 )


      isym = 36     inv.  90 deg rotation - cart. axis [0,-1,0]  

 cryst.   s(36) = (     0          1          0      )
                  (     0          0          1      )
                  (    -1         -1         -1      )

 cart.    s(36) = (  0.0000000  0.0000000  1.0000000 )
                  (  0.0000000 -1.0000000  0.0000000 )
                  ( -1.0000000  0.0000000  0.0000000 )


      isym = 37     inv. 180 deg rotation - cart. axis [0,1,1]   

 cryst.   s(37) = (    -1         -1         -1      )
                  (     0          1          0      )
                  (     0          0          1      )

 cart.    s(37) = (  1.0000000  0.0000000  0.0000000 )
                  (  0.0000000  0.0000000 -1.0000000 )
                  (  0.0000000 -1.0000000  0.0000000 )


      isym = 38     inv. 180 deg rotation - cart. axis [0,1,-1]  

 cryst.   s(38) = (     1          0          0      )
                  (     0          0          1      )
                  (     0          1          0      )

 cart.    s(38) = (  1.0000000  0.0000000  0.0000000 )
                  (  0.0000000  0.0000000  1.0000000 )
                  (  0.0000000  1.0000000  0.0000000 )


      isym = 39     inv.  90 deg rotation - cart. axis [-1,0,0]  

 cryst.   s(39) = (     0          1          0      )
                  (    -1         -1         -1      )
                  (     1          0          0      )

 cart.    s(39) = ( -1.0000000  0.0000000  0.0000000 )
                  (  0.0000000  0.0000000 -1.0000000 )
                  (  0.0000000  1.0000000  0.0000000 )


      isym = 40     inv.  90 deg rotation - cart. axis [1,0,0]   

 cryst.   s(40) = (     0          0          1      )
                  (     1          0          0      )
                  (    -1         -1         -1      )

 cart.    s(40) = ( -1.0000000  0.0000000  0.0000000 )
                  (  0.0000000  0.0000000  1.0000000 )
                  (  0.0000000 -1.0000000  0.0000000 )


      isym = 41     inv. 120 deg rotation - cart. axis [-1,-1,-1]

 cryst.   s(41) = (     0          0         -1      )
                  (    -1          0          0      )
                  (     0         -1          0      )

 cart.    s(41) = (  0.0000000 -1.0000000  0.0000000 )
                  (  0.0000000  0.0000000 -1.0000000 )
                  ( -1.0000000  0.0000000  0.0000000 )


      isym = 42     inv. 120 deg rotation - cart. axis [-1,1,1]  

 cryst.   s(42) = (    -1          0          0      )
                  (     0          0         -1      )
                  (     1          1          1      )

 cart.    s(42) = (  0.0000000  1.0000000  0.0000000 )
                  (  0.0000000  0.0000000 -1.0000000 )
                  (  1.0000000  0.0000000  0.0000000 )


      isym = 43     inv. 120 deg rotation - cart. axis [1,1,-1]  

 cryst.   s(43) = (     0         -1          0      )
                  (     1          1          1      )
                  (     0          0         -1      )

 cart.    s(43) = (  0.0000000 -1.0000000  0.0000000 )
                  (  0.0000000  0.0000000  1.0000000 )
                  (  1.0000000  0.0000000  0.0000000 )


      isym = 44     inv. 120 deg rotation - cart. axis [1,-1,1]  

 cryst.   s(44) = (     1          1          1      )
                  (     0         -1          0      )
                  (    -1          0          0      )

 cart.    s(44) = (  0.0000000  1.0000000  0.0000000 )
                  (  0.0000000  0.0000000  1.0000000 )
                  ( -1.0000000  0.0000000  0.0000000 )


      isym = 45     inv. 120 deg rotation - cart. axis [1,1,1]   

 cryst.   s(45) = (     0         -1          0      )
                  (     0          0         -1      )
                  (    -1          0          0      )

 cart.    s(45) = (  0.0000000  0.0000000 -1.0000000 )
                  ( -1.0000000  0.0000000  0.0000000 )
                  (  0.0000000 -1.0000000  0.0000000 )


      isym = 46     inv. 120 deg rotation - cart. axis [-1,1,-1] 

 cryst.   s(46) = (     0          0         -1      )
                  (     0         -1          0      )
                  (     1          1          1      )

 cart.    s(46) = (  0.0000000  0.0000000 -1.0000000 )
                  (  1.0000000  0.0000000  0.0000000 )
                  (  0.0000000  1.0000000  0.0000000 )


      isym = 47     inv. 120 deg rotation - cart. axis [1,-1,-1] 

 cryst.   s(47) = (    -1          0          0      )
                  (     1          1          1      )
                  (     0         -1          0      )

 cart.    s(47) = (  0.0000000  0.0000000  1.0000000 )
                  (  1.0000000  0.0000000  0.0000000 )
                  (  0.0000000 -1.0000000  0.0000000 )


      isym = 48     inv. 120 deg rotation - cart. axis [-1,-1,1] 

 cryst.   s(48) = (     1          1          1      )
                  (    -1          0          0      )
                  (     0          0         -1      )

 cart.    s(48) = (  0.0000000  0.0000000  1.0000000 )
                  ( -1.0000000  0.0000000  0.0000000 )
                  (  0.0000000  1.0000000  0.0000000 )


   Cartesian axes

     site n.     atom                  positions (alat units)
         1           Se  tau(   1) = (   0.0000000   0.0000000   0.0000000  )

   Crystallographic axes

     site n.     atom                  positions (cryst. coord.)
         1           Se  tau(   1) = (  0.0000000  0.0000000  0.0000000  )

     number of k points=    50  gaussian smearing, width (Ry)=  0.0010
                       cart. coord. in units 2pi/alat
        k(    1) = (   0.0000000   0.0000000   0.0000000), wk =   0.0400000
        k(    2) = (   0.0000000   0.0618590   0.0000000), wk =   0.0400000
        k(    3) = (   0.0000000   0.1237179   0.0000000), wk =   0.0400000
        k(    4) = (   0.0000000   0.1855769   0.0000000), wk =   0.0400000
        k(    5) = (   0.0000000   0.2474358   0.0000000), wk =   0.0400000
        k(    6) = (   0.0000000   0.3092948   0.0000000), wk =   0.0400000
        k(    7) = (   0.0000000   0.3711537   0.0000000), wk =   0.0400000
        k(    8) = (   0.0000000   0.4330127   0.0000000), wk =   0.0400000
        k(    9) = (   0.0000000   0.4948717   0.0000000), wk =   0.0400000
        k(   10) = (   0.0000000   0.5567306   0.0000000), wk =   0.0400000
        k(   11) = (   0.0000000   0.6185896   0.0000000), wk =   0.0400000
        k(   12) = (   0.0000000   0.6804485   0.0000000), wk =   0.0400000
        k(   13) = (   0.0000000   0.7423075   0.0000000), wk =   0.0400000
        k(   14) = (   0.0000000   0.8041664   0.0000000), wk =   0.0400000
        k(   15) = (   0.0000000   0.8660254   0.0000000), wk =   0.0400000
        k(   16) = (   0.0433013   0.8227241   0.0000000), wk =   0.0400000
        k(   17) = (   0.0866025   0.7794229   0.0000000), wk =   0.0400000
        k(   18) = (   0.1299038   0.7361216   0.0000000), wk =   0.0400000
        k(   19) = (   0.1732051   0.6928203   0.0000000), wk =   0.0400000
        k(   20) = (   0.2165064   0.6495191   0.0000000), wk =   0.0400000
        k(   21) = (   0.2598076   0.6062178   0.0000000), wk =   0.0400000
        k(   22) = (   0.3031089   0.5629165   0.0000000), wk =   0.0400000
        k(   23) = (   0.3464102   0.5196152   0.0000000), wk =   0.0400000
        k(   24) = (   0.3897114   0.4763140   0.0000000), wk =   0.0400000
        k(   25) = (   0.4330127   0.4330127   0.0000000), wk =   0.0400000
        k(   26) = (   0.3936479   0.3936479   0.0000000), wk =   0.0400000
        k(   27) = (   0.3542831   0.3542831   0.0000000), wk =   0.0400000
        k(   28) = (   0.3149183   0.3149183   0.0000000), wk =   0.0400000
        k(   29) = (   0.2755535   0.2755535   0.0000000), wk =   0.0400000
        k(   30) = (   0.2361887   0.2361887   0.0000000), wk =   0.0400000
        k(   31) = (   0.1968240   0.1968240   0.0000000), wk =   0.0400000
        k(   32) = (   0.1574592   0.1574592   0.0000000), wk =   0.0400000
        k(   33) = (   0.1180944   0.1180944   0.0000000), wk =   0.0400000
        k(   34) = (   0.0787296   0.0787296   0.0000000), wk =   0.0400000
        k(   35) = (   0.0393648   0.0393648   0.0000000), wk =   0.0400000
        k(   36) = (   0.0000000   0.0000000   0.0000000), wk =   0.0400000
        k(   37) = (   0.0309295   0.0309295   0.0309295), wk =   0.0400000
        k(   38) = (   0.0618590   0.0618590   0.0618590), wk =   0.0400000
        k(   39) = (   0.0927884   0.0927884   0.0927884), wk =   0.0400000
        k(   40) = (   0.1237179   0.1237179   0.1237179), wk =   0.0400000
        k(   41) = (   0.1546474   0.1546474   0.1546474), wk =   0.0400000
        k(   42) = (   0.1855769   0.1855769   0.1855769), wk =   0.0400000
        k(   43) = (   0.2165064   0.2165064   0.2165064), wk =   0.0400000
        k(   44) = (   0.2474358   0.2474358   0.2474358), wk =   0.0400000
        k(   45) = (   0.2783653   0.2783653   0.2783653), wk =   0.0400000
        k(   46) = (   0.3092948   0.3092948   0.3092948), wk =   0.0400000
        k(   47) = (   0.3402243   0.3402243   0.3402243), wk =   0.0400000
        k(   48) = (   0.3711537   0.3711537   0.3711537), wk =   0.0400000
        k(   49) = (   0.4020832   0.4020832   0.4020832), wk =   0.0400000
        k(   50) = (   0.4330127   0.4330127   0.4330127), wk =   0.0400000

                       cryst. coord.
        k(    1) = (   0.0000000   0.0000000   0.0000000), wk =   0.0400000
        k(    2) = (   0.0357143  -0.0357143   0.0357143), wk =   0.0400000
        k(    3) = (   0.0714286  -0.0714286   0.0714286), wk =   0.0400000
        k(    4) = (   0.1071429  -0.1071429   0.1071429), wk =   0.0400000
        k(    5) = (   0.1428571  -0.1428571   0.1428571), wk =   0.0400000
        k(    6) = (   0.1785714  -0.1785714   0.1785714), wk =   0.0400000
        k(    7) = (   0.2142857  -0.2142857   0.2142857), wk =   0.0400000
        k(    8) = (   0.2500000  -0.2500000   0.2500000), wk =   0.0400000
        k(    9) = (   0.2857143  -0.2857143   0.2857143), wk =   0.0400000
        k(   10) = (   0.3214286  -0.3214286   0.3214286), wk =   0.0400000
        k(   11) = (   0.3571429  -0.3571429   0.3571429), wk =   0.0400000
        k(   12) = (   0.3928571  -0.3928571   0.3928571), wk =   0.0400000
        k(   13) = (   0.4285714  -0.4285714   0.4285714), wk =   0.0400000
        k(   14) = (   0.4642857  -0.4642857   0.4642857), wk =   0.0400000
        k(   15) = (   0.5000000  -0.5000000   0.5000000), wk =   0.0400000
        k(   16) = (   0.4500000  -0.4500000   0.5000000), wk =   0.0400000
        k(   17) = (   0.4000000  -0.4000000   0.5000000), wk =   0.0400000
        k(   18) = (   0.3500000  -0.3500000   0.5000000), wk =   0.0400000
        k(   19) = (   0.3000000  -0.3000000   0.5000000), wk =   0.0400000
        k(   20) = (   0.2500000  -0.2500000   0.5000000), wk =   0.0400000
        k(   21) = (   0.2000000  -0.2000000   0.5000000), wk =   0.0400000
        k(   22) = (   0.1500000  -0.1500000   0.5000000), wk =   0.0400000
        k(   23) = (   0.1000000  -0.1000000   0.5000000), wk =   0.0400000
        k(   24) = (   0.0500000  -0.0500000   0.5000000), wk =   0.0400000
        k(   25) = (   0.0000000   0.0000000   0.5000000), wk =   0.0400000
        k(   26) = (   0.0000000   0.0000000   0.4545455), wk =   0.0400000
        k(   27) = (   0.0000000   0.0000000   0.4090909), wk =   0.0400000
        k(   28) = (   0.0000000   0.0000000   0.3636364), wk =   0.0400000
        k(   29) = (   0.0000000   0.0000000   0.3181818), wk =   0.0400000
        k(   30) = (   0.0000000   0.0000000   0.2727273), wk =   0.0400000
        k(   31) = (   0.0000000   0.0000000   0.2272727), wk =   0.0400000
        k(   32) = (   0.0000000   0.0000000   0.1818182), wk =   0.0400000
        k(   33) = (   0.0000000   0.0000000   0.1363636), wk =   0.0400000
        k(   34) = (   0.0000000   0.0000000   0.0909091), wk =   0.0400000
        k(   35) = (   0.0000000   0.0000000   0.0454545), wk =   0.0400000
        k(   36) = (   0.0000000   0.0000000   0.0000000), wk =   0.0400000
        k(   37) = (   0.0178571   0.0178571   0.0178571), wk =   0.0400000
        k(   38) = (   0.0357143   0.0357143   0.0357143), wk =   0.0400000
        k(   39) = (   0.0535714   0.0535714   0.0535714), wk =   0.0400000
        k(   40) = (   0.0714286   0.0714286   0.0714286), wk =   0.0400000
        k(   41) = (   0.0892857   0.0892857   0.0892857), wk =   0.0400000
        k(   42) = (   0.1071429   0.1071429   0.1071429), wk =   0.0400000
        k(   43) = (   0.1250000   0.1250000   0.1250000), wk =   0.0400000
        k(   44) = (   0.1428571   0.1428571   0.1428571), wk =   0.0400000
        k(   45) = (   0.1607143   0.1607143   0.1607143), wk =   0.0400000
        k(   46) = (   0.1785714   0.1785714   0.1785714), wk =   0.0400000
        k(   47) = (   0.1964286   0.1964286   0.1964286), wk =   0.0400000
        k(   48) = (   0.2142857   0.2142857   0.2142857), wk =   0.0400000
        k(   49) = (   0.2321429   0.2321429   0.2321429), wk =   0.0400000
        k(   50) = (   0.2500000   0.2500000   0.2500000), wk =   0.0400000

     Dense  grid:     6603 G-vectors     FFT dimensions: (  25,  25,  25)

     Smooth grid:     4729 G-vectors     FFT dimensions: (  24,  24,  24)

     Estimated max dynamical RAM per process >       5.76Mb

     The potential is recalculated from file :
     ./pwscf.save/charge-density.dat

     Starting wfc are    4 randomized atomic wfcs +    3 random wfc

     Band Structure Calculation
     Davidson diagonalization with overlap

     Computing kpt #:     1
     total cpu time spent up to now is        0.7 secs

     Computing kpt #:     2
     total cpu time spent up to now is        0.9 secs

     Computing kpt #:     3
     total cpu time spent up to now is        1.1 secs

     Computing kpt #:     4
     total cpu time spent up to now is        1.3 secs

     Computing kpt #:     5
     total cpu time spent up to now is        1.7 secs

     Computing kpt #:     6
     total cpu time spent up to now is        1.9 secs

     Computing kpt #:     7
     total cpu time spent up to now is        2.1 secs

     Computing kpt #:     8
     total cpu time spent up to now is        2.2 secs

     Computing kpt #:     9
     total cpu time spent up to now is        2.4 secs

     Computing kpt #:    10
     total cpu time spent up to now is        2.5 secs

     Computing kpt #:    11
     total cpu time spent up to now is        2.6 secs

     Computing kpt #:    12
     total cpu time spent up to now is        2.7 secs

     Computing kpt #:    13
     total cpu time spent up to now is        2.9 secs

     Computing kpt #:    14
     total cpu time spent up to now is        3.3 secs

     Computing kpt #:    15
     total cpu time spent up to now is        3.5 secs

     Computing kpt #:    16
     total cpu time spent up to now is        3.7 secs

     Computing kpt #:    17
     total cpu time spent up to now is        3.9 secs

     Computing kpt #:    18
     total cpu time spent up to now is        4.1 secs

     Computing kpt #:    19
     total cpu time spent up to now is        4.3 secs

     Computing kpt #:    20
     total cpu time spent up to now is        4.4 secs

     Computing kpt #:    21
     total cpu time spent up to now is        4.6 secs

     Computing kpt #:    22
     total cpu time spent up to now is        4.8 secs

     Computing kpt #:    23
     total cpu time spent up to now is        4.9 secs

     Computing kpt #:    24
     total cpu time spent up to now is        5.1 secs

     Computing kpt #:    25
     total cpu time spent up to now is        5.2 secs

     Computing kpt #:    26
     total cpu time spent up to now is        5.4 secs

     Computing kpt #:    27
     total cpu time spent up to now is        5.5 secs

     Computing kpt #:    28
     total cpu time spent up to now is        5.7 secs

     Computing kpt #:    29
     total cpu time spent up to now is        5.9 secs

     Computing kpt #:    30
     total cpu time spent up to now is        6.1 secs

     Computing kpt #:    31
     total cpu time spent up to now is        6.3 secs

     Computing kpt #:    32
     total cpu time spent up to now is        6.5 secs

     Computing kpt #:    33
     total cpu time spent up to now is        6.7 secs

     Computing kpt #:    34
     total cpu time spent up to now is        6.9 secs

     Computing kpt #:    35
     total cpu time spent up to now is        7.1 secs

     Computing kpt #:    36
     total cpu time spent up to now is        7.3 secs

     Computing kpt #:    37
     total cpu time spent up to now is        7.5 secs

     Computing kpt #:    38
     total cpu time spent up to now is        7.7 secs

     Computing kpt #:    39
     total cpu time spent up to now is        7.8 secs

     Computing kpt #:    40
     total cpu time spent up to now is        8.0 secs

     Computing kpt #:    41
     total cpu time spent up to now is        8.1 secs

     Computing kpt #:    42
     total cpu time spent up to now is        8.3 secs

     Computing kpt #:    43
     total cpu time spent up to now is        8.4 secs

     Computing kpt #:    44
     total cpu time spent up to now is        8.6 secs

     Computing kpt #:    45
     total cpu time spent up to now is        8.7 secs

     Computing kpt #:    46
     total cpu time spent up to now is        8.9 secs

     Computing kpt #:    47
     total cpu time spent up to now is        9.0 secs

     Computing kpt #:    48
     total cpu time spent up to now is        9.2 secs

     Computing kpt #:    49
     total cpu time spent up to now is        9.3 secs

     Computing kpt #:    50
     total cpu time spent up to now is        9.4 secs

     ethr =  1.67E-09,  avg # of iterations = 25.8

     total cpu time spent up to now is        9.4 secs

     End of band structure calculation

          k = 0.0000 0.0000 0.0000 (   603 PWs)   bands (ev):

    -7.7884  11.2589  11.2589  11.2589  19.4187  20.7976  20.7976

          k = 0.0000 0.0619 0.0000 (   603 PWs)   bands (ev):

    -7.7349  11.0031  11.1434  11.1434  19.6812  20.7191  20.7191

          k = 0.0000 0.1237 0.0000 (   591 PWs)   bands (ev):

    -7.5753  10.3418  10.8113  10.8113  20.3252  20.5908  20.5908

          k = 0.0000 0.1856 0.0000 (   591 PWs)   bands (ev):

    -7.3118   9.4706  10.3028  10.3028  19.9440  20.5701  20.5701

          k = 0.0000 0.2474 0.0000 (   595 PWs)   bands (ev):

    -6.9485   8.5370   9.6738   9.6738  18.6528  20.7319  20.7319

          k = 0.0000 0.3093 0.0000 (   595 PWs)   bands (ev):

    -6.4921   7.6280   8.9824   8.9824  17.4781  21.0895  21.0895

          k = 0.0000 0.3712 0.0000 (   591 PWs)   bands (ev):

    -5.9526   6.7946   8.2786   8.2786  16.4237  21.6328  21.6328

          k = 0.0000 0.4330 0.0000 (   583 PWs)   bands (ev):

    -5.3450   6.0706   7.6005   7.6005  15.4915  21.6878  22.3472

          k = 0.0000 0.4949 0.0000 (   586 PWs)   bands (ev):

    -4.6918   5.4822   6.9757   6.9757  14.6824  20.3010  23.2189

          k = 0.0000 0.5567 0.0000 (   590 PWs)   bands (ev):

    -4.0248   5.0534   6.4236   6.4236  13.9973  18.5388  24.2373

          k = 0.0000 0.6186 0.0000 (   594 PWs)   bands (ev):

    -3.3875   4.8055   5.9577   5.9577  13.4363  16.7450  25.3932

          k = 0.0000 0.6804 0.0000 (   590 PWs)   bands (ev):

    -2.8317   4.7472   5.5874   5.5874  12.9998  15.0966  26.6785

          k = 0.0000 0.7423 0.0000 (   598 PWs)   bands (ev):

    -2.4067   4.8501   5.3188   5.3188  12.6879  13.7249  28.0717

          k = 0.0000 0.8042 0.0000 (   598 PWs)   bands (ev):

    -2.1447   5.0181   5.1562   5.1562  12.5007  12.7817  29.4279

          k = 0.0000 0.8660 0.0000 (   586 PWs)   bands (ev):

    -2.0569   5.1018   5.1018   5.1018  12.4384  12.4384  29.5941

          k = 0.0433 0.8227 0.0000 (   596 PWs)   bands (ev):

    -2.1409   4.9517   5.1551   5.2188  12.5702  12.7065  29.1884

          k = 0.0866 0.7794 0.0000 (   596 PWs)   bands (ev):

    -2.3709   4.5609   5.3138   5.5488  12.9608  13.4516  27.2422

          k = 0.1299 0.7361 0.0000 (   586 PWs)   bands (ev):

    -2.6959   4.0459   5.5738   6.0439  13.5930  14.5561  25.2573

          k = 0.1732 0.6928 0.0000 (   590 PWs)   bands (ev):

    -3.0616   3.5027   5.9274   6.6554  14.4272  15.9226  23.3777

          k = 0.2165 0.6495 0.0000 (   582 PWs)   bands (ev):

    -3.4238   2.9910   6.3615   7.3470  15.3736  17.4895  21.6435

          k = 0.2598 0.6062 0.0000 (   578 PWs)   bands (ev):

    -3.7514   2.5450   6.8541   8.0916  16.2093  19.2196  20.0823

          k = 0.3031 0.5629 0.0000 (   578 PWs)   bands (ev):

    -4.0231   2.1844   7.3690   8.8595  16.4901  18.7341  21.0887

          k = 0.3464 0.5196 0.0000 (   580 PWs)   bands (ev):

    -4.2255   1.9204   7.8469   9.5971  16.0831  17.6601  22.4616

          k = 0.3897 0.4763 0.0000 (   596 PWs)   bands (ev):

    -4.3499   1.7598   8.2007  10.1885  15.5064  16.9483  24.0638

          k = 0.4330 0.4330 0.0000 (   590 PWs)   bands (ev):

    -4.3919   1.7059   8.3339  10.4305  15.2459  16.6957  25.6829

          k = 0.3936 0.3936 0.0000 (   582 PWs)   bands (ev):

    -4.5244   1.9189   8.3757  10.4476  15.3067  16.7426  25.2858

          k = 0.3543 0.3543 0.0000 (   582 PWs)   bands (ev):

    -4.8716   2.5058   8.5003  10.4974  15.4894  16.8830  24.6224

          k = 0.3149 0.3149 0.0000 (   583 PWs)   bands (ev):

    -5.3341   3.3626   8.7043  10.5760  15.7949  17.1159  24.0100

          k = 0.2756 0.2756 0.0000 (   591 PWs)   bands (ev):

    -5.8303   4.3989   8.9819  10.6769  16.2241  17.4393  23.5134

          k = 0.2362 0.2362 0.0000 (   595 PWs)   bands (ev):

    -6.3091   5.5500   9.3238  10.7916  16.7771  17.8494  23.1564

          k = 0.1968 0.1968 0.0000 (   595 PWs)   bands (ev):

    -6.7410   6.7654   9.7155  10.9106  17.4500  18.3400  22.6925

          k = 0.1575 0.1575 0.0000 (   595 PWs)   bands (ev):

    -7.1089   7.9953  10.1348  11.0235  18.2263  18.8992  22.1851

          k = 0.1181 0.1181 0.0000 (   587 PWs)   bands (ev):

    -7.4025   9.1776  10.5491  11.1212  19.0471  19.5036  21.5505

          k = 0.0787 0.0787 0.0000 (   595 PWs)   bands (ev):

    -7.6158  10.2191  10.9121  11.1961  19.6863  20.1037  20.8559

          k = 0.0394 0.0394 0.0000 (   603 PWs)   bands (ev):

    -7.7451  10.9744  11.1665  11.2430  19.6119  20.5949  20.7326

          k = 0.0000 0.0000 0.0000 (   603 PWs)   bands (ev):

    -7.7884  11.2589  11.2589  11.2589  19.4187  20.7976  20.7976

          k = 0.0309 0.0309 0.0309 (   603 PWs)   bands (ev):

    -7.7483  10.9744  11.2192  11.2192  19.6000  20.6416  20.6416

          k = 0.0619 0.0619 0.0619 (   594 PWs)   bands (ev):

    -7.6286  10.2393  11.0934  11.0934  19.9376  20.2089  20.2089

          k = 0.0928 0.0928 0.0928 (   600 PWs)   bands (ev):

    -7.4310   9.2660  10.8642  10.8642  19.6671  19.6671  20.2557

          k = 0.1237 0.1237 0.1237 (   600 PWs)   bands (ev):

    -7.1588   8.2095  10.5143  10.5143  19.2140  19.2140  20.5879

          k = 0.1546 0.1546 0.1546 (   600 PWs)   bands (ev):

    -6.8170   7.1590  10.0399  10.0399  18.9554  18.9554  20.9687

          k = 0.1856 0.1856 0.1856 (   600 PWs)   bands (ev):

    -6.4138   6.1674   9.4583   9.4583  18.9195  18.9195  21.4092

          k = 0.2165 0.2165 0.2165 (   595 PWs)   bands (ev):

    -5.9612   5.2715   8.8028   8.8028  19.0934  19.0934  21.9086

          k = 0.2474 0.2474 0.2474 (   595 PWs)   bands (ev):

    -5.4777   4.5037   8.1112   8.1112  19.4469  19.4469  22.4576

          k = 0.2784 0.2784 0.2784 (   592 PWs)   bands (ev):

    -4.9903   3.8989   7.4169   7.4169  19.9467  19.9467  23.0360

          k = 0.3093 0.3093 0.3093 (   589 PWs)   bands (ev):

    -4.5363   3.4985   6.7457   6.7457  20.5602  20.5602  23.6049

          k = 0.3402 0.3402 0.3402 (   580 PWs)   bands (ev):

    -4.1595   3.3478   6.1166   6.1166  21.2539  21.2539  24.0850

          k = 0.3712 0.3712 0.3712 (   580 PWs)   bands (ev):

    -3.8966   3.4822   5.5428   5.5428  21.9870  21.9870  24.3260

          k = 0.4021 0.4021 0.4021 (   580 PWs)   bands (ev):

    -3.7578   3.9083   5.0338   5.0338  22.7033  22.7033  24.1084

          k = 0.4330 0.4330 0.4330 (   604 PWs)   bands (ev):

    -3.7204   4.5958   4.5958   4.5958  23.3160  23.3160  23.3160

     Writing output data file pwscf.save

     init_run     :      0.50s CPU      0.42s WALL (       1 calls)
     electrons    :     14.67s CPU      8.88s WALL (       1 calls)

     Called by init_run:
     wfcinit      :      0.00s CPU      0.00s WALL (       1 calls)
     wfcinit:atom :      0.05s CPU      0.01s WALL (      50 calls)
     wfcinit:wfcr :      0.48s CPU      0.39s WALL (      50 calls)
     potinit      :      0.02s CPU      0.02s WALL (       1 calls)

     Called by electrons:
     c_bands      :     14.66s CPU      8.87s WALL (       1 calls)
     v_of_rho     :      0.00s CPU      0.01s WALL (       1 calls)
     v_h          :      0.00s CPU      0.00s WALL (       1 calls)
     v_xc         :      0.00s CPU      0.01s WALL (       1 calls)
     newd         :      0.00s CPU      0.04s WALL (       1 calls)

     Called by c_bands:
     init_us_2    :      0.09s CPU      0.03s WALL (      50 calls)
     cegterg      :     13.84s CPU      8.34s WALL (      82 calls)

     Called by sum_band:

     Called by *egterg:
     h_psi        :     11.11s CPU      6.35s WALL (    1420 calls)
     s_psi        :      0.28s CPU      0.12s WALL (    1420 calls)
     g_psi        :      0.08s CPU      0.04s WALL (    1288 calls)
     cdiaghg      :      1.66s CPU      1.49s WALL (    1338 calls)
     cegterg:over :      0.42s CPU      0.24s WALL (    1288 calls)
     cegterg:upda :      0.33s CPU      0.20s WALL (    1288 calls)
     cegterg:last :      0.22s CPU      0.12s WALL (     287 calls)

     Called by h_psi:
     h_psi:pot    :     11.00s CPU      6.31s WALL (    1420 calls)
     h_psi:calbec :      0.20s CPU      0.15s WALL (    1420 calls)
     vloc_psi     :     10.56s CPU      5.99s WALL (    1420 calls)
     add_vuspsi   :      0.22s CPU      0.14s WALL (    1420 calls)

     General routines
     calbec       :      0.20s CPU      0.13s WALL (    1420 calls)
     fft          :      0.00s CPU      0.00s WALL (      13 calls)
     ffts         :      0.02s CPU      0.01s WALL (       1 calls)
     fftw         :      9.91s CPU      5.51s WALL (   11966 calls)
     interpolate  :      0.02s CPU      0.01s WALL (       1 calls)
     davcio       :      0.00s CPU      0.00s WALL (      50 calls)

     Parallel routines
     fft_scatter  :      0.58s CPU      0.28s WALL (   11980 calls)

     PWSCF        :    15.53s CPU         9.71s WALL


   This run was terminated on:  15:53: 4  25Feb2021            

=------------------------------------------------------------------------------=
   JOB DONE.
=------------------------------------------------------------------------------=
