element =  Ta
struct =  bcc
nbands =  -4
path =  GHNGP
kpts =  (8,8,8)
lattice constant a =  3.301
lattice constant b =  3.301
lattice constant c =  3.301
alpha angle =  90.0

  ___ ___ ___ _ _ _  
 |   |   |_  | | | | 
 | | | | | . | | | | 
 |__ |  _|___|_____|  1.3.1b1
 |___|_|             

User:   inukai@DESKTOP-12SE80T
Date:   Fri Feb 12 04:29:43 2021
Arch:   x86_64
Pid:    19230
Python: 3.6.9
gpaw:   /usr/lib/python3/dist-packages/gpaw
_gpaw:  /usr/lib/python3/dist-packages/_gpaw.cpython-36m-x86_64-linux-gnu.so
ase:    /home/inukai/hotcent/ase-3.19.3/ase (version 3.19.3)
numpy:  /home/inukai/.local/lib/python3.6/site-packages/numpy (version 1.19.5)
scipy:  /home/inukai/.local/lib/python3.6/site-packages/scipy (version 1.5.4)
units:  Angstrom and eV
cores:  1

Input parameters:
  kpts: [8 8 8]
  maxiter: 1500
  mixer: {backend: pulay,
          beta: 0.01,
          method: separate,
          nmaxold: 11,
          weight: 100.0}
  mode: {ecut: 400.0,
         name: pw}
  occupations: {name: fermi-dirac,
                width: 0.02}
  spinpol: True
  xc: PBE

System changes: positions, numbers, cell, pbc, initial_charges, initial_magmoms 

Initialize ...

Ta-setup:
  name: Tantalum
  id: 11af46c593fc4ab177d7f3c18ea2003e
  Z: 73
  valence: 13
  core: 60
  charge: 0.0
  file: /usr/share/gpaw-setups/Ta.PBE.gz
  cutoffs: 1.32(comp), 2.36(filt), 3.45(core), lmax=2
  valence states:
                energy  radius
    5s(2.00)   -72.790   1.365
    6s(2.00)    -5.429   1.365
    5p(6.00)   -39.427   1.349
    6p(0.00)    -1.396   1.349
    5d(3.00)    -3.603   1.307
    *d          23.609   1.307

  Using partial waves for Ta as LCAO basis

Reference energy: -424172.441401

Spin-polarized calculation.
Magnetic moment:  0.000000

Occupation numbers:
  Fermi-Dirac: width=0.0200 eV

Convergence criteria:
  Maximum total energy change: 0.0005 eV / electron
  Maximum integral of absolute density change: 0.0001 electrons
  Maximum integral of absolute eigenstate change: 4e-08 eV^2
  Maximum number of iterations: 1500

Symmetries present (total): 48

  ( 1  1  1)  ( 1  1  1)  ( 1  1  1)  ( 1  1  1)  ( 1  1  1)  ( 1  1  1)
  ( 0  0 -1)  ( 0  0 -1)  ( 0 -1  0)  ( 0 -1  0)  (-1  0  0)  (-1  0  0)
  ( 0 -1  0)  (-1  0  0)  ( 0  0 -1)  (-1  0  0)  ( 0  0 -1)  ( 0 -1  0)

  ( 1  0  0)  ( 1  0  0)  ( 1  0  0)  ( 1  0  0)  ( 1  0  0)  ( 1  0  0)
  ( 0  1  0)  ( 0  1  0)  ( 0  0  1)  ( 0  0  1)  (-1 -1 -1)  (-1 -1 -1)
  ( 0  0  1)  (-1 -1 -1)  ( 0  1  0)  (-1 -1 -1)  ( 0  1  0)  ( 0  0  1)

  ( 0  1  0)  ( 0  1  0)  ( 0  1  0)  ( 0  1  0)  ( 0  1  0)  ( 0  1  0)
  ( 1  0  0)  ( 1  0  0)  ( 0  0  1)  ( 0  0  1)  (-1 -1 -1)  (-1 -1 -1)
  ( 0  0  1)  (-1 -1 -1)  ( 1  0  0)  (-1 -1 -1)  ( 1  0  0)  ( 0  0  1)

  ( 0  0  1)  ( 0  0  1)  ( 0  0  1)  ( 0  0  1)  ( 0  0  1)  ( 0  0  1)
  ( 1  0  0)  ( 1  0  0)  ( 0  1  0)  ( 0  1  0)  (-1 -1 -1)  (-1 -1 -1)
  ( 0  1  0)  (-1 -1 -1)  ( 1  0  0)  (-1 -1 -1)  ( 1  0  0)  ( 0  1  0)

  ( 0  0 -1)  ( 0  0 -1)  ( 0  0 -1)  ( 0  0 -1)  ( 0  0 -1)  ( 0  0 -1)
  ( 1  1  1)  ( 1  1  1)  ( 0 -1  0)  ( 0 -1  0)  (-1  0  0)  (-1  0  0)
  ( 0 -1  0)  (-1  0  0)  ( 1  1  1)  (-1  0  0)  ( 1  1  1)  ( 0 -1  0)

  ( 0 -1  0)  ( 0 -1  0)  ( 0 -1  0)  ( 0 -1  0)  ( 0 -1  0)  ( 0 -1  0)
  ( 1  1  1)  ( 1  1  1)  ( 0  0 -1)  ( 0  0 -1)  (-1  0  0)  (-1  0  0)
  ( 0  0 -1)  (-1  0  0)  ( 1  1  1)  (-1  0  0)  ( 1  1  1)  ( 0  0 -1)

  (-1  0  0)  (-1  0  0)  (-1  0  0)  (-1  0  0)  (-1  0  0)  (-1  0  0)
  ( 1  1  1)  ( 1  1  1)  ( 0  0 -1)  ( 0  0 -1)  ( 0 -1  0)  ( 0 -1  0)
  ( 0  0 -1)  ( 0 -1  0)  ( 1  1  1)  ( 0 -1  0)  ( 1  1  1)  ( 0  0 -1)

  (-1 -1 -1)  (-1 -1 -1)  (-1 -1 -1)  (-1 -1 -1)  (-1 -1 -1)  (-1 -1 -1)
  ( 1  0  0)  ( 1  0  0)  ( 0  1  0)  ( 0  1  0)  ( 0  0  1)  ( 0  0  1)
  ( 0  1  0)  ( 0  0  1)  ( 1  0  0)  ( 0  0  1)  ( 1  0  0)  ( 0  1  0)

512 k-points: 8 x 8 x 8 Monkhorst-Pack grid
26 k-points in the irreducible part of the Brillouin zone
       k-points in crystal coordinates                weights
   0:     0.06250000    0.06250000   -0.06250000          6/512
   1:     0.18750000   -0.06250000   -0.06250000          8/512
   2:     0.18750000    0.06250000   -0.06250000         24/512
   3:     0.18750000    0.18750000   -0.18750000          6/512
   4:     0.31250000   -0.06250000   -0.06250000         24/512
   5:     0.31250000    0.06250000   -0.18750000         24/512
   6:     0.31250000    0.06250000   -0.06250000         24/512
   7:     0.31250000    0.18750000   -0.18750000         24/512
   8:     0.31250000    0.31250000   -0.31250000          6/512
   9:     0.31250000    0.31250000    0.18750000         12/512
          ...
  25:     0.43750000    0.43750000    0.43750000          8/512

Wave functions: Plane wave expansion
  Cutoff energy: 400.000 eV
  Number of coefficients (min, max): 319, 335
  Using FFTW library
  Eigensolver: None  MatrixOperator buffer_size: default value or 
                              see value of nblock in input file
Diagonalizer layout: Serial LAPACKOrthonormalizer layout: Serial LAPACK 

Davidson(niter=1, smin=None, normalize=True) 

Densities:
  Coarse grid: 12*12*12 grid
  Fine grid: 24*24*24 grid
  Total Charge: 0.000000 

Density mixing:
  Method: separate
  Backend: pulay
  Linear mixing parameter: 0.01
  Mixing with 11 old densities
  Damping of long wave oscillations: 100 

Hamiltonian:
  XC and Coulomb potentials evaluated on a 24*24*24 grid
  Using the PBE Exchange-Correlation functional
 

Memory estimate:
  Process memory now: 928.41 MiB
  Calculator: 6.61 MiB
    Density: 1.30 MiB
      Arrays: 0.46 MiB
      Localized functions: 0.26 MiB
      Mixer: 0.58 MiB
    Hamiltonian: 0.35 MiB
      Arrays: 0.34 MiB
      XC: 0.00 MiB
      Poisson: 0.00 MiB
      vbar: 0.01 MiB
    Wavefunctions: 4.96 MiB
      Arrays psit_nG: 3.46 MiB
      Eigensolver: 0.12 MiB
      Projections: 0.19 MiB
      Projectors: 0.97 MiB
      Overlap op: 0.07 MiB
      PW-descriptor: 0.16 MiB

Total number of cores used: 1

Number of atoms: 1
Number of atomic orbitals: 13
Number of bands in calculation: 13
Bands to converge: occupied states only
Number of valence electrons: 13

... initialized

Initializing position-dependent things.

Density initialized from atomic densities
Creating initial wave functions:
  13 bands from LCAO basis set

                
                
                
       Ta       
                
                
                
                

Positions:
   0 Ta     0.000000    0.000000    0.000000

Unit cell:
           periodic     x           y           z      points  spacing
  1. axis:    yes   -1.650500    1.650500    1.650500    12     0.1945
  2. axis:    yes    1.650500   -1.650500    1.650500    12     0.1945
  3. axis:    yes    1.650500    1.650500   -1.650500    12     0.1945

  Lengths:   2.858750   2.858750   2.858750
  Angles:  109.471221 109.471221 109.471221

Effective grid spacing dv^(1/3) = 0.2183

                     log10-error:    total        iterations:
           time      wfs    density  energy       fermi  poisson  magmom
iter:   1  04:29:47  +2.11   +inf    -9.939293    3               +0.0000
iter:   2  04:29:47  -0.10   +inf    -9.981188    4               +0.0000
iter:   3  04:29:48  -1.05   +inf    -9.986794    2               +0.0000
iter:   4  04:29:49  -1.62  -1.32    -9.981465    3               -0.0000
iter:   5  04:29:51  -0.41  -1.32    -9.809786    28              -0.0000
iter:   6  04:29:52  -1.05  -1.75    -9.828087    31              -0.0000
iter:   7  04:29:54  -1.14  -2.06    -9.914600    26              -0.0000
iter:   8  04:29:55  -0.52  -1.72    -9.817962    30              -0.0000
iter:   9  04:29:56  -2.15  -2.87    -9.819602    3               -0.0000
iter:  10  04:29:57  -3.18  -2.59    -9.819525    3               -0.0000
iter:  11  04:29:58  -3.14  -2.62    -9.820324    3               -0.0000
iter:  12  04:30:00  -2.56  -2.51    -9.818747    4               -0.0000
iter:  13  04:30:01  -3.53  -3.04    -9.818692    3               -0.0000
iter:  14  04:30:02  -4.35  -3.92    -9.818703    2               -0.0000
iter:  15  04:30:03  -5.38  -3.85    -9.818703    2               -0.0000
iter:  16  04:30:05  -5.36  -3.85    -9.818696    2               +0.0000
iter:  17  04:30:06  -5.99  -3.90    -9.818700    2               -0.0000
iter:  18  04:30:07  -6.47  -4.36    -9.818700    2               -0.0000
iter:  19  04:30:08  -7.48  -4.34    -9.818700    2               -0.0000

Converged after 19 iterations.

Dipole moment: (-0.000000, -0.000000, -0.000000) |e|*Ang

Total magnetic moment: -0.000000
Local magnetic moments:
   0 Ta 0.000000

Energy contributions relative to reference atoms: (reference = -424172.441401)

Kinetic:        +10.457605
Potential:      -10.823425
External:        +0.000000
XC:              -9.193088
Entropy (-ST):   -0.003621
Local:           -0.257981
--------------------------
Free energy:     -9.820510
Extrapolated:    -9.818700

Spin contamination: 0.000000 electrons
Fermi level: 11.81079

Warning: Showing only first 2 kpts
                      Up                     Down
 Kpt  Band  Eigenvalues  Occupancy  Eigenvalues  Occupancy
  0     4      4.31050    0.01172      4.31050    0.01172
  0     5     12.50236    0.00000     12.50236    0.00000
  0     6     12.50287    0.00000     12.50287    0.00000
  0     7     12.71453    0.00000     12.71453    0.00000

  1     4      4.95253    0.01562      4.95253    0.01562
  1     5     11.99622    0.00000     11.99622    0.00000
  1     6     11.99671    0.00000     11.99671    0.00000
  1     7     13.74848    0.00000     13.74848    0.00000


Input parameters:
  convergence: {bands: all}
  eigensolver: {name: cg,
                niter: 5}
  fixdensity: True
  kpts: {npoints: 50,
         path: GHNGP}
  nbands: -4
  symmetry: off

Initialize ...

Ta-setup:
  name: Tantalum
  id: 11af46c593fc4ab177d7f3c18ea2003e
  Z: 73
  valence: 13
  core: 60
  charge: 0.0
  file: /usr/share/gpaw-setups/Ta.PBE.gz
  cutoffs: 1.32(comp), 2.36(filt), 3.45(core), lmax=2
  valence states:
                energy  radius
    5s(2.00)   -72.790   1.365
    6s(2.00)    -5.429   1.365
    5p(6.00)   -39.427   1.349
    6p(0.00)    -1.396   1.349
    5d(3.00)    -3.603   1.307
    *d          23.609   1.307

  Using partial waves for Ta as LCAO basis

Reference energy: -424172.441401

Spin-polarized calculation.
Magnetic moment:  0.000000

Occupation numbers:
  Fixed Fermi level
  Fermi-Dirac: width=0.0200 eV

Convergence criteria:
  Maximum total energy change: 0.0005 eV / electron
  Maximum integral of absolute density change: 0.0001 electrons
  Maximum integral of absolute eigenstate change: 4e-08 eV^2
  Maximum number of iterations: 1500

Symmetries present (total): 1

  ( 1  0  0)
  ( 0  1  0)
  ( 0  0  1)

50 k-points
50 k-points in the irreducible part of the Brillouin zone
       k-points in crystal coordinates                weights
   0:     0.00000000    0.00000000    0.00000000          1/50
   1:     0.03571429   -0.03571429    0.03571429          1/50
   2:     0.07142857   -0.07142857    0.07142857          1/50
   3:     0.10714286   -0.10714286    0.10714286          1/50
   4:     0.14285714   -0.14285714    0.14285714          1/50
   5:     0.17857143   -0.17857143    0.17857143          1/50
   6:     0.21428571   -0.21428571    0.21428571          1/50
   7:     0.25000000   -0.25000000    0.25000000          1/50
   8:     0.28571429   -0.28571429    0.28571429          1/50
   9:     0.32142857   -0.32142857    0.32142857          1/50
          ...
  49:     0.25000000    0.25000000    0.25000000          1/50

Wave functions: Plane wave expansion
  Cutoff energy: 400.000 eV
  Number of coefficients (min, max): 298, 341
  Using FFTW library
  Eigensolver: None  MatrixOperator buffer_size: default value or 
                              see value of nblock in input file
Diagonalizer layout: Serial LAPACKOrthonormalizer layout: Serial LAPACK 

CG(niter=5, rtol=3.0e-01) 

No density mixing

Memory estimate:
  Process memory now: 1004.22 MiB
  Calculator: 9.39 MiB
    Density: 1.30 MiB
      Arrays: 0.46 MiB
      Localized functions: 0.26 MiB
      Mixer: 0.58 MiB
    Hamiltonian: 0.35 MiB
      Arrays: 0.34 MiB
      XC: 0.00 MiB
      Poisson: 0.00 MiB
      vbar: 0.01 MiB
    Wavefunctions: 7.74 MiB
      Arrays psit_nG: 5.20 MiB
      Eigensolver: 0.08 MiB
      Projections: 0.27 MiB
      Projectors: 1.88 MiB
      Overlap op: 0.05 MiB
      PW-descriptor: 0.25 MiB

Total number of cores used: 1

Number of atoms: 1
Number of atomic orbitals: 13
Number of bands in calculation: 10
Bands to converge: all
Number of valence electrons: 13

... initialized

Initializing position-dependent things.

Creating initial wave functions:
  10 bands from LCAO basis set

                
                
                
       Ta       
                
                
                
                

Positions:
   0 Ta     0.000000    0.000000    0.000000

Unit cell:
           periodic     x           y           z      points  spacing
  1. axis:    yes   -1.650500    1.650500    1.650500    12     0.1945
  2. axis:    yes    1.650500   -1.650500    1.650500    12     0.1945
  3. axis:    yes    1.650500    1.650500   -1.650500    12     0.1945

  Lengths:   2.858750   2.858750   2.858750
  Angles:  109.471221 109.471221 109.471221

Effective grid spacing dv^(1/3) = 0.2183

                     log10-error:    total        iterations:
           time      wfs    density  energy       fermi  poisson  magmom
iter:   1  04:30:15  +1.00          -10.565090    31              +0.0000
iter:   2  04:30:19  +0.05          -10.588025    33              +0.0000
iter:   3  04:30:23  -0.89          -10.591939    34              -0.0000
iter:   4  04:30:26  -1.75          -10.592314    34              -0.0000
iter:   5  04:30:30  -2.65          -10.592381    33              -0.0000
iter:   6  04:30:34  -3.44          -10.592394    34              -0.0000
iter:   7  04:30:38  -4.21          -10.592396    29              -0.0000
iter:   8  04:30:41  -4.90          -10.592396    33              -0.0000
iter:   9  04:30:43  -5.61          -10.592397    31              -0.0000
iter:  10  04:30:44  -6.23          -10.592397    32              -0.0000
iter:  11  04:30:45  -6.88          -10.592397    34              -0.0000
iter:  12  04:30:46  -7.45          -10.592397    25              -0.0000

Converged after 12 iterations.

Dipole moment: (-0.000000, -0.000000, -0.000000) |e|*Ang

Total magnetic moment: -0.000000
Local magnetic moments:
   0 Ta 0.000000

Energy contributions relative to reference atoms: (reference = -424172.441401)

Kinetic:         +9.686174
Potential:      -10.823413
External:        +0.000000
XC:              -9.193072
Entropy (-ST):   -0.008181
Local:           -0.257995
--------------------------
Free energy:    -10.596487
Extrapolated:   -10.592397

Spin contamination: 0.000000 electrons
Fixed Fermi level: 11.81079

Warning: Showing only first 2 kpts
                      Up                     Down
 Kpt  Band  Eigenvalues  Occupancy  Eigenvalues  Occupancy
  0     4      3.96483    0.02000      3.96483    0.02000
  0     5     12.55066    0.00448     12.55066    0.00448
  0     6     12.55066    0.00448     12.55066    0.00448
  0     7     12.55146    0.00434     12.55146    0.00434

  1     4      4.07897    0.02000      4.07897    0.02000
  1     5     12.53295    0.00823     12.53295    0.00823
  1     6     12.53347    0.00811     12.53347    0.00811
  1     7     12.60449    0.00038     12.60449    0.00038


Timing:                              incl.     excl.
-----------------------------------------------------------
Hamiltonian:                         0.668     0.001   0.0% |
 Atomic:                             0.545     0.002   0.0% |
  XC Correction:                     0.543     0.543   0.8% |
 Calculate atomic Hamiltonians:      0.005     0.005   0.0% |
 Communicate:                        0.000     0.000   0.0% |
 Initialize Hamiltonian:             0.000     0.000   0.0% |
 Poisson:                            0.000     0.000   0.0% |
 XC 3D grid:                         0.116     0.116   0.2% |
LCAO initialization:                 3.687     0.200   0.3% |
 LCAO eigensolver:                   1.852     0.014   0.0% |
  Calculate projections:             0.005     0.005   0.0% |
  DenseAtomicCorrection:             0.027     0.027   0.0% |
  Distribute overlap matrix:         0.006     0.006   0.0% |
  Orbital Layouts:                   0.093     0.093   0.1% |
  Potential matrix:                  0.903     0.903   1.4% ||
  Sum over cells:                    0.804     0.804   1.2% |
 LCAO to grid:                       0.902     0.902   1.4% ||
 Set positions (LCAO WFS):           0.733     0.001   0.0% |
  Basic WFS set positions:           0.002     0.002   0.0% |
  Basis functions set positions:     0.000     0.000   0.0% |
  TCI: Calculate S, T, P:            0.730     0.730   1.1% |
PWDescriptor:                        0.017     0.017   0.0% |
Redistribute:                        0.000     0.000   0.0% |
SCF-cycle:                          57.273     5.523   8.5% |--|
 CG:                                26.695    23.472  36.3% |--------------|
  CG: orthonormalize:                3.223     1.839   2.8% ||
   CG: overlap:                      0.853     0.853   1.3% ||
   CG: overlap2:                     0.531     0.531   0.8% |
 Davidson:                          10.693     5.837   9.0% |---|
  calc. matrices:                    2.660     2.660   4.1% |-|
  diagonalize:                       1.795     1.795   2.8% ||
  rotate_psi:                        0.402     0.402   0.6% |
 Density:                            2.009     0.001   0.0% |
  Atomic density matrices:           0.038     0.038   0.1% |
  Mix:                               0.088     0.088   0.1% |
  Multipole moments:                 0.002     0.002   0.0% |
  Pseudo density:                    1.880     1.605   2.5% ||
   Symmetrize density:               0.275     0.275   0.4% |
 Hamiltonian:                        5.350     0.010   0.0% |
  Atomic:                            4.535     0.016   0.0% |
   XC Correction:                    4.519     4.519   7.0% |--|
  Calculate atomic Hamiltonians:     0.041     0.041   0.1% |
  Communicate:                       0.000     0.000   0.0% |
  Poisson:                           0.003     0.003   0.0% |
  XC 3D grid:                        0.761     0.761   1.2% |
 Orthonormalize:                     0.168     0.012   0.0% |
  Band Layouts:                      0.011     0.003   0.0% |
   Inverse Cholesky:                 0.008     0.008   0.0% |
  calc_s_matrix:                     0.027     0.027   0.0% |
  projections:                       0.094     0.094   0.1% |
  rotate_psi:                        0.025     0.025   0.0% |
 Residuals:                          1.001     1.001   1.5% ||
 Subspace diag:                      5.832     0.275   0.4% |
  Band Layouts:                      0.845     0.078   0.1% |
   Diagonalize:                      0.709     0.709   1.1% |
   Distribute results:               0.058     0.058   0.1% |
  calc_h_matrix:                     4.048     4.048   6.3% |--|
  rotate_psi:                        0.665     0.665   1.0% |
Set symmetry:                        0.096     0.096   0.1% |
Other:                               2.962     2.962   4.6% |-|
-----------------------------------------------------------
Total:                                        64.703 100.0%

Date: Fri Feb 12 04:30:48 2021
element =  Ta
struct =  bcc
kpts =  (8,8,8)
element =  Ta
configuration =  [Xe] 5d3 6s2 6p0
valence =  ['5d', '6s', '6p']
occupations =  {'5d': 3, '6s': 2, '6p': 0}
nls =  5d
rNum =  600
lmax =  f
*******************************************
Starting confinement parameter optimization
Adjustable parameters and initial values:
  Ta_5d.r0 : 6.425069
  Ta_6p.r0 : 6.425069
  Ta_6s.r0 : 6.425069
  Ta_n.r0 : 9.637603
*******************************************

OPT_VAL: 6.425068827845556   6.425068827845556   6.425068827845556   9.637603241768334
VCONF:
  Ta_5d : PowerConfinement(r0=6.425069, s=2.000000)
  Ta_6p : PowerConfinement(r0=6.425069, s=2.000000)
  Ta_6s : PowerConfinement(r0=6.425069, s=2.000000)
  Ta_n : PowerConfinement(r0=9.637603, s=2.000000)
RESIDUAL: 0.0

OPT_VAL: 6.625068827845556   6.425068827845556   6.425068827845556   9.637603241768334
VCONF:
  Ta_5d : PowerConfinement(r0=6.625069, s=2.000000)
  Ta_6p : PowerConfinement(r0=6.425069, s=2.000000)
  Ta_6s : PowerConfinement(r0=6.425069, s=2.000000)
  Ta_n : PowerConfinement(r0=9.637603, s=2.000000)
RESIDUAL: 0.0

OPT_VAL: 6.425068827845556   6.625068827845556   6.425068827845556   9.637603241768334
VCONF:
  Ta_5d : PowerConfinement(r0=6.425069, s=2.000000)
  Ta_6p : PowerConfinement(r0=6.625069, s=2.000000)
  Ta_6s : PowerConfinement(r0=6.425069, s=2.000000)
  Ta_n : PowerConfinement(r0=9.637603, s=2.000000)
RESIDUAL: 0.0

OPT_VAL: 6.425068827845556   6.425068827845556   6.625068827845556   9.637603241768334
VCONF:
  Ta_5d : PowerConfinement(r0=6.425069, s=2.000000)
  Ta_6p : PowerConfinement(r0=6.425069, s=2.000000)
  Ta_6s : PowerConfinement(r0=6.625069, s=2.000000)
  Ta_n : PowerConfinement(r0=9.637603, s=2.000000)
RESIDUAL: 0.0

OPT_VAL: 6.425068827845556   6.425068827845556   6.425068827845556   9.837603241768333
VCONF:
  Ta_5d : PowerConfinement(r0=6.425069, s=2.000000)
  Ta_6p : PowerConfinement(r0=6.425069, s=2.000000)
  Ta_6s : PowerConfinement(r0=6.425069, s=2.000000)
  Ta_n : PowerConfinement(r0=9.837603, s=2.000000)
RESIDUAL: 0.0

OPT_VAL: 6.4500688278455565   6.425068827845556   6.425068827845556   9.637603241768334
VCONF:
  Ta_5d : PowerConfinement(r0=6.450069, s=2.000000)
  Ta_6p : PowerConfinement(r0=6.425069, s=2.000000)
  Ta_6s : PowerConfinement(r0=6.425069, s=2.000000)
  Ta_n : PowerConfinement(r0=9.637603, s=2.000000)
RESIDUAL: 0.0

OPT_VAL: 6.425068827845556   6.4500688278455565   6.425068827845556   9.637603241768334
VCONF:
  Ta_5d : PowerConfinement(r0=6.425069, s=2.000000)
  Ta_6p : PowerConfinement(r0=6.450069, s=2.000000)
  Ta_6s : PowerConfinement(r0=6.425069, s=2.000000)
  Ta_n : PowerConfinement(r0=9.637603, s=2.000000)
RESIDUAL: 0.0

OPT_VAL: 6.425068827845556   6.425068827845556   6.4500688278455565   9.637603241768334
VCONF:
  Ta_5d : PowerConfinement(r0=6.425069, s=2.000000)
  Ta_6p : PowerConfinement(r0=6.425069, s=2.000000)
  Ta_6s : PowerConfinement(r0=6.450069, s=2.000000)
  Ta_n : PowerConfinement(r0=9.637603, s=2.000000)
RESIDUAL: 0.0

OPT_VAL: 6.425068827845556   6.425068827845556   6.425068827845556   9.662603241768334
VCONF:
  Ta_5d : PowerConfinement(r0=6.425069, s=2.000000)
  Ta_6p : PowerConfinement(r0=6.425069, s=2.000000)
  Ta_6s : PowerConfinement(r0=6.425069, s=2.000000)
  Ta_n : PowerConfinement(r0=9.662603, s=2.000000)
RESIDUAL: 0.0

OPT_VAL: 6.430068827845556   6.425068827845556   6.425068827845556   9.637603241768334
VCONF:
  Ta_5d : PowerConfinement(r0=6.430069, s=2.000000)
  Ta_6p : PowerConfinement(r0=6.425069, s=2.000000)
  Ta_6s : PowerConfinement(r0=6.425069, s=2.000000)
  Ta_n : PowerConfinement(r0=9.637603, s=2.000000)
RESIDUAL: 0.0

OPT_VAL: 6.425068827845556   6.430068827845556   6.425068827845556   9.637603241768334
VCONF:
  Ta_5d : PowerConfinement(r0=6.425069, s=2.000000)
  Ta_6p : PowerConfinement(r0=6.430069, s=2.000000)
  Ta_6s : PowerConfinement(r0=6.425069, s=2.000000)
  Ta_n : PowerConfinement(r0=9.637603, s=2.000000)
RESIDUAL: 0.0

OPT_VAL: 6.425068827845556   6.425068827845556   6.430068827845556   9.637603241768334
VCONF:
  Ta_5d : PowerConfinement(r0=6.425069, s=2.000000)
  Ta_6p : PowerConfinement(r0=6.425069, s=2.000000)
  Ta_6s : PowerConfinement(r0=6.430069, s=2.000000)
  Ta_n : PowerConfinement(r0=9.637603, s=2.000000)
RESIDUAL: 0.0

OPT_VAL: 6.425068827845556   6.425068827845556   6.425068827845556   9.642603241768334
VCONF:
  Ta_5d : PowerConfinement(r0=6.425069, s=2.000000)
  Ta_6p : PowerConfinement(r0=6.425069, s=2.000000)
  Ta_6s : PowerConfinement(r0=6.425069, s=2.000000)
  Ta_n : PowerConfinement(r0=9.642603, s=2.000000)
RESIDUAL: 0.0

*******************************************
Optimization finished after 13 iterations
Adjustable parameters and final values:
  Ta_5d.r0 : 6.425069
  Ta_6p.r0 : 6.425069
  Ta_6s.r0 : 6.425069
  Ta_n.r0 : 9.637603
*******************************************

VCONF:
  Ta_5d : PowerConfinement(r0=6.425069, s=2.000000)
  Ta_6p : PowerConfinement(r0=6.425069, s=2.000000)
  Ta_6s : PowerConfinement(r0=6.425069, s=2.000000)
  Ta_n : PowerConfinement(r0=9.637603, s=2.000000)
