
     Program PWSCF v.6.0 (svn rev. 13079) starts on 25Feb2021 at 22:57:27 

     This program is part of the open-source Quantum ESPRESSO suite
     for quantum simulation of materials; please cite
         "P. Giannozzi et al., J. Phys.:Condens. Matter 21 395502 (2009);
          URL http://www.quantum-espresso.org", 
     in publications or presentations arising from this work. More details at
     http://www.quantum-espresso.org/quote

     Parallel version (MPI), running on     1 processors
     Reading input from espresso.pwi
Warning: card &IONS ignored
Warning: card / ignored
Warning: card &CELL ignored
Warning: card / ignored

     Current dimensions of program PWSCF are:
     Max number of different atomic species (ntypx) = 10
     Max number of k-points (npk) =  40000
     Max angular momentum in pseudopotentials (lmaxx) =  3
     Message from routine input:
     WARNING: "startingwfc" set to atomic+random may spoil restart

     Atomic positions and unit cell read from directory:
     ./pwscf.save/


     IMPORTANT: XC functional enforced from input :
     Exchange-correlation      = PBE ( 1  4  3  4 0 0)
     Any further DFT definition will be discarded
     Please, verify this is what you really want


     Subspace diagonalization in iterative solution of the eigenvalue problem:
     a serial algorithm will be used


     G-vector sticks info
     --------------------
     sticks:   dense  smooth     PW     G-vecs:    dense   smooth      PW
     Sum         437     345    117                 5775     4093     791



     bravais-lattice index     =            0
     lattice parameter (alat)  =       5.4023  a.u.
     unit-cell volume          =     121.3677 (a.u.)^3
     number of atoms/cell      =            1
     number of atomic types    =            1
     number of electrons       =        13.00
     number of Kohn-Sham states=           11
     kinetic-energy cutoff     =      40.0000  Ry
     charge density cutoff     =     200.0000  Ry
     Exchange-correlation      = PBE ( 1  4  3  4 0 0)

     celldm(1)=   5.402254  celldm(2)=   0.000000  celldm(3)=   0.000000
     celldm(4)=   0.000000  celldm(5)=   0.000000  celldm(6)=   0.000000

     crystal axes: (cart. coord. in units of alat)
               a(1) = (  -0.577350   0.577350   0.577350 )  
               a(2) = (   0.577350  -0.577350   0.577350 )  
               a(3) = (   0.577350   0.577350  -0.577350 )  

     reciprocal axes: (cart. coord. in units 2 pi/alat)
               b(1) = (  0.000000  0.866025  0.866025 )  
               b(2) = (  0.866025  0.000000  0.866025 )  
               b(3) = (  0.866025  0.866025  0.000000 )  


     PseudoPot. # 1 for Ta read from file:
     /home/inukai/tango/tests/1element/qe_fit_v2_Ta/../pseudo/ta_pbe_v1.uspp.F.UPF
     MD5 check sum: f8bbe9446314a3b8ea5d9f3e3836c939
     Pseudo is Ultrasoft + core correction, Zval = 13.0
     Generated by new atomic code, or converted to UPF format
     Using radial grid of  921 points,  7 beta functions with: 
                l(1) =   0
                l(2) =   0
                l(3) =   1
                l(4) =   1
                l(5) =   2
                l(6) =   2
                l(7) =   3
     Q(r) pseudized with  6 coefficients,  rinner =    1.300   1.300   1.300
                                                       1.300   1.300   1.300
                                                       1.300

     atomic species   valence    mass     pseudopotential
        Ta            13.00   180.94788     Ta( 1.00)

     48 Sym. Ops., with inversion, found


                                    s                        frac. trans.

      isym =  1     identity                                     

 cryst.   s( 1) = (     1          0          0      )
                  (     0          1          0      )
                  (     0          0          1      )

 cart.    s( 1) = (  1.0000000  0.0000000  0.0000000 )
                  (  0.0000000  1.0000000  0.0000000 )
                  (  0.0000000  0.0000000  1.0000000 )


      isym =  2     180 deg rotation - cart. axis [0,0,1]        

 cryst.   s( 2) = (     0          1          0      )
                  (     1          0          0      )
                  (    -1         -1         -1      )

 cart.    s( 2) = ( -1.0000000  0.0000000  0.0000000 )
                  (  0.0000000 -1.0000000  0.0000000 )
                  (  0.0000000  0.0000000  1.0000000 )


      isym =  3     180 deg rotation - cart. axis [0,1,0]        

 cryst.   s( 3) = (     0          0          1      )
                  (    -1         -1         -1      )
                  (     1          0          0      )

 cart.    s( 3) = ( -1.0000000  0.0000000  0.0000000 )
                  (  0.0000000  1.0000000  0.0000000 )
                  (  0.0000000  0.0000000 -1.0000000 )


      isym =  4     180 deg rotation - cart. axis [1,0,0]        

 cryst.   s( 4) = (    -1         -1         -1      )
                  (     0          0          1      )
                  (     0          1          0      )

 cart.    s( 4) = (  1.0000000  0.0000000  0.0000000 )
                  (  0.0000000 -1.0000000  0.0000000 )
                  (  0.0000000  0.0000000 -1.0000000 )


      isym =  5     180 deg rotation - cart. axis [1,1,0]        

 cryst.   s( 5) = (    -1          0          0      )
                  (     0         -1          0      )
                  (     1          1          1      )

 cart.    s( 5) = (  0.0000000  1.0000000  0.0000000 )
                  (  1.0000000  0.0000000  0.0000000 )
                  (  0.0000000  0.0000000 -1.0000000 )


      isym =  6     180 deg rotation - cart. axis [1,-1,0]       

 cryst.   s( 6) = (     0         -1          0      )
                  (    -1          0          0      )
                  (     0          0         -1      )

 cart.    s( 6) = (  0.0000000 -1.0000000  0.0000000 )
                  ( -1.0000000  0.0000000  0.0000000 )
                  (  0.0000000  0.0000000 -1.0000000 )


      isym =  7      90 deg rotation - cart. axis [0,0,-1]       

 cryst.   s( 7) = (     1          1          1      )
                  (     0          0         -1      )
                  (    -1          0          0      )

 cart.    s( 7) = (  0.0000000  1.0000000  0.0000000 )
                  ( -1.0000000  0.0000000  0.0000000 )
                  (  0.0000000  0.0000000  1.0000000 )


      isym =  8      90 deg rotation - cart. axis [0,0,1]        

 cryst.   s( 8) = (     0          0         -1      )
                  (     1          1          1      )
                  (     0         -1          0      )

 cart.    s( 8) = (  0.0000000 -1.0000000  0.0000000 )
                  (  1.0000000  0.0000000  0.0000000 )
                  (  0.0000000  0.0000000  1.0000000 )


      isym =  9     180 deg rotation - cart. axis [1,0,1]        

 cryst.   s( 9) = (    -1          0          0      )
                  (     1          1          1      )
                  (     0          0         -1      )

 cart.    s( 9) = (  0.0000000  0.0000000  1.0000000 )
                  (  0.0000000 -1.0000000  0.0000000 )
                  (  1.0000000  0.0000000  0.0000000 )


      isym = 10     180 deg rotation - cart. axis [-1,0,1]       

 cryst.   s(10) = (     0          0         -1      )
                  (     0         -1          0      )
                  (    -1          0          0      )

 cart.    s(10) = (  0.0000000  0.0000000 -1.0000000 )
                  (  0.0000000 -1.0000000  0.0000000 )
                  ( -1.0000000  0.0000000  0.0000000 )


      isym = 11      90 deg rotation - cart. axis [0,1,0]        

 cryst.   s(11) = (     1          1          1      )
                  (    -1          0          0      )
                  (     0         -1          0      )

 cart.    s(11) = (  0.0000000  0.0000000  1.0000000 )
                  (  0.0000000  1.0000000  0.0000000 )
                  ( -1.0000000  0.0000000  0.0000000 )


      isym = 12      90 deg rotation - cart. axis [0,-1,0]       

 cryst.   s(12) = (     0         -1          0      )
                  (     0          0         -1      )
                  (     1          1          1      )

 cart.    s(12) = (  0.0000000  0.0000000 -1.0000000 )
                  (  0.0000000  1.0000000  0.0000000 )
                  (  1.0000000  0.0000000  0.0000000 )


      isym = 13     180 deg rotation - cart. axis [0,1,1]        

 cryst.   s(13) = (     1          1          1      )
                  (     0         -1          0      )
                  (     0          0         -1      )

 cart.    s(13) = ( -1.0000000  0.0000000  0.0000000 )
                  (  0.0000000  0.0000000  1.0000000 )
                  (  0.0000000  1.0000000  0.0000000 )


      isym = 14     180 deg rotation - cart. axis [0,1,-1]       

 cryst.   s(14) = (    -1          0          0      )
                  (     0          0         -1      )
                  (     0         -1          0      )

 cart.    s(14) = ( -1.0000000  0.0000000  0.0000000 )
                  (  0.0000000  0.0000000 -1.0000000 )
                  (  0.0000000 -1.0000000  0.0000000 )


      isym = 15      90 deg rotation - cart. axis [-1,0,0]       

 cryst.   s(15) = (     0         -1          0      )
                  (     1          1          1      )
                  (    -1          0          0      )

 cart.    s(15) = (  1.0000000  0.0000000  0.0000000 )
                  (  0.0000000  0.0000000  1.0000000 )
                  (  0.0000000 -1.0000000  0.0000000 )


      isym = 16      90 deg rotation - cart. axis [1,0,0]        

 cryst.   s(16) = (     0          0         -1      )
                  (    -1          0          0      )
                  (     1          1          1      )

 cart.    s(16) = (  1.0000000  0.0000000  0.0000000 )
                  (  0.0000000  0.0000000 -1.0000000 )
                  (  0.0000000  1.0000000  0.0000000 )


      isym = 17     120 deg rotation - cart. axis [-1,-1,-1]     

 cryst.   s(17) = (     0          0          1      )
                  (     1          0          0      )
                  (     0          1          0      )

 cart.    s(17) = (  0.0000000  1.0000000  0.0000000 )
                  (  0.0000000  0.0000000  1.0000000 )
                  (  1.0000000  0.0000000  0.0000000 )


      isym = 18     120 deg rotation - cart. axis [-1,1,1]       

 cryst.   s(18) = (     1          0          0      )
                  (     0          0          1      )
                  (    -1         -1         -1      )

 cart.    s(18) = (  0.0000000 -1.0000000  0.0000000 )
                  (  0.0000000  0.0000000  1.0000000 )
                  ( -1.0000000  0.0000000  0.0000000 )


      isym = 19     120 deg rotation - cart. axis [1,1,-1]       

 cryst.   s(19) = (     0          1          0      )
                  (    -1         -1         -1      )
                  (     0          0          1      )

 cart.    s(19) = (  0.0000000  1.0000000  0.0000000 )
                  (  0.0000000  0.0000000 -1.0000000 )
                  ( -1.0000000  0.0000000  0.0000000 )


      isym = 20     120 deg rotation - cart. axis [1,-1,1]       

 cryst.   s(20) = (    -1         -1         -1      )
                  (     0          1          0      )
                  (     1          0          0      )

 cart.    s(20) = (  0.0000000 -1.0000000  0.0000000 )
                  (  0.0000000  0.0000000 -1.0000000 )
                  (  1.0000000  0.0000000  0.0000000 )


      isym = 21     120 deg rotation - cart. axis [1,1,1]        

 cryst.   s(21) = (     0          1          0      )
                  (     0          0          1      )
                  (     1          0          0      )

 cart.    s(21) = (  0.0000000  0.0000000  1.0000000 )
                  (  1.0000000  0.0000000  0.0000000 )
                  (  0.0000000  1.0000000  0.0000000 )


      isym = 22     120 deg rotation - cart. axis [-1,1,-1]      

 cryst.   s(22) = (     0          0          1      )
                  (     0          1          0      )
                  (    -1         -1         -1      )

 cart.    s(22) = (  0.0000000  0.0000000  1.0000000 )
                  ( -1.0000000  0.0000000  0.0000000 )
                  (  0.0000000 -1.0000000  0.0000000 )


      isym = 23     120 deg rotation - cart. axis [1,-1,-1]      

 cryst.   s(23) = (     1          0          0      )
                  (    -1         -1         -1      )
                  (     0          1          0      )

 cart.    s(23) = (  0.0000000  0.0000000 -1.0000000 )
                  ( -1.0000000  0.0000000  0.0000000 )
                  (  0.0000000  1.0000000  0.0000000 )


      isym = 24     120 deg rotation - cart. axis [-1,-1,1]      

 cryst.   s(24) = (    -1         -1         -1      )
                  (     1          0          0      )
                  (     0          0          1      )

 cart.    s(24) = (  0.0000000  0.0000000 -1.0000000 )
                  (  1.0000000  0.0000000  0.0000000 )
                  (  0.0000000 -1.0000000  0.0000000 )


      isym = 25     inversion                                    

 cryst.   s(25) = (    -1          0          0      )
                  (     0         -1          0      )
                  (     0          0         -1      )

 cart.    s(25) = ( -1.0000000  0.0000000  0.0000000 )
                  (  0.0000000 -1.0000000  0.0000000 )
                  (  0.0000000  0.0000000 -1.0000000 )


      isym = 26     inv. 180 deg rotation - cart. axis [0,0,1]   

 cryst.   s(26) = (     0         -1          0      )
                  (    -1          0          0      )
                  (     1          1          1      )

 cart.    s(26) = (  1.0000000  0.0000000  0.0000000 )
                  (  0.0000000  1.0000000  0.0000000 )
                  (  0.0000000  0.0000000 -1.0000000 )


      isym = 27     inv. 180 deg rotation - cart. axis [0,1,0]   

 cryst.   s(27) = (     0          0         -1      )
                  (     1          1          1      )
                  (    -1          0          0      )

 cart.    s(27) = (  1.0000000  0.0000000  0.0000000 )
                  (  0.0000000 -1.0000000  0.0000000 )
                  (  0.0000000  0.0000000  1.0000000 )


      isym = 28     inv. 180 deg rotation - cart. axis [1,0,0]   

 cryst.   s(28) = (     1          1          1      )
                  (     0          0         -1      )
                  (     0         -1          0      )

 cart.    s(28) = ( -1.0000000  0.0000000  0.0000000 )
                  (  0.0000000  1.0000000  0.0000000 )
                  (  0.0000000  0.0000000  1.0000000 )


      isym = 29     inv. 180 deg rotation - cart. axis [1,1,0]   

 cryst.   s(29) = (     1          0          0      )
                  (     0          1          0      )
                  (    -1         -1         -1      )

 cart.    s(29) = (  0.0000000 -1.0000000  0.0000000 )
                  ( -1.0000000  0.0000000  0.0000000 )
                  (  0.0000000  0.0000000  1.0000000 )


      isym = 30     inv. 180 deg rotation - cart. axis [1,-1,0]  

 cryst.   s(30) = (     0          1          0      )
                  (     1          0          0      )
                  (     0          0          1      )

 cart.    s(30) = (  0.0000000  1.0000000  0.0000000 )
                  (  1.0000000  0.0000000  0.0000000 )
                  (  0.0000000  0.0000000  1.0000000 )


      isym = 31     inv.  90 deg rotation - cart. axis [0,0,-1]  

 cryst.   s(31) = (    -1         -1         -1      )
                  (     0          0          1      )
                  (     1          0          0      )

 cart.    s(31) = (  0.0000000 -1.0000000  0.0000000 )
                  (  1.0000000  0.0000000  0.0000000 )
                  (  0.0000000  0.0000000 -1.0000000 )


      isym = 32     inv.  90 deg rotation - cart. axis [0,0,1]   

 cryst.   s(32) = (     0          0          1      )
                  (    -1         -1         -1      )
                  (     0          1          0      )

 cart.    s(32) = (  0.0000000  1.0000000  0.0000000 )
                  ( -1.0000000  0.0000000  0.0000000 )
                  (  0.0000000  0.0000000 -1.0000000 )


      isym = 33     inv. 180 deg rotation - cart. axis [1,0,1]   

 cryst.   s(33) = (     1          0          0      )
                  (    -1         -1         -1      )
                  (     0          0          1      )

 cart.    s(33) = (  0.0000000  0.0000000 -1.0000000 )
                  (  0.0000000  1.0000000  0.0000000 )
                  ( -1.0000000  0.0000000  0.0000000 )


      isym = 34     inv. 180 deg rotation - cart. axis [-1,0,1]  

 cryst.   s(34) = (     0          0          1      )
                  (     0          1          0      )
                  (     1          0          0      )

 cart.    s(34) = (  0.0000000  0.0000000  1.0000000 )
                  (  0.0000000  1.0000000  0.0000000 )
                  (  1.0000000  0.0000000  0.0000000 )


      isym = 35     inv.  90 deg rotation - cart. axis [0,1,0]   

 cryst.   s(35) = (    -1         -1         -1      )
                  (     1          0          0      )
                  (     0          1          0      )

 cart.    s(35) = (  0.0000000  0.0000000 -1.0000000 )
                  (  0.0000000 -1.0000000  0.0000000 )
                  (  1.0000000  0.0000000  0.0000000 )


      isym = 36     inv.  90 deg rotation - cart. axis [0,-1,0]  

 cryst.   s(36) = (     0          1          0      )
                  (     0          0          1      )
                  (    -1         -1         -1      )

 cart.    s(36) = (  0.0000000  0.0000000  1.0000000 )
                  (  0.0000000 -1.0000000  0.0000000 )
                  ( -1.0000000  0.0000000  0.0000000 )


      isym = 37     inv. 180 deg rotation - cart. axis [0,1,1]   

 cryst.   s(37) = (    -1         -1         -1      )
                  (     0          1          0      )
                  (     0          0          1      )

 cart.    s(37) = (  1.0000000  0.0000000  0.0000000 )
                  (  0.0000000  0.0000000 -1.0000000 )
                  (  0.0000000 -1.0000000  0.0000000 )


      isym = 38     inv. 180 deg rotation - cart. axis [0,1,-1]  

 cryst.   s(38) = (     1          0          0      )
                  (     0          0          1      )
                  (     0          1          0      )

 cart.    s(38) = (  1.0000000  0.0000000  0.0000000 )
                  (  0.0000000  0.0000000  1.0000000 )
                  (  0.0000000  1.0000000  0.0000000 )


      isym = 39     inv.  90 deg rotation - cart. axis [-1,0,0]  

 cryst.   s(39) = (     0          1          0      )
                  (    -1         -1         -1      )
                  (     1          0          0      )

 cart.    s(39) = ( -1.0000000  0.0000000  0.0000000 )
                  (  0.0000000  0.0000000 -1.0000000 )
                  (  0.0000000  1.0000000  0.0000000 )


      isym = 40     inv.  90 deg rotation - cart. axis [1,0,0]   

 cryst.   s(40) = (     0          0          1      )
                  (     1          0          0      )
                  (    -1         -1         -1      )

 cart.    s(40) = ( -1.0000000  0.0000000  0.0000000 )
                  (  0.0000000  0.0000000  1.0000000 )
                  (  0.0000000 -1.0000000  0.0000000 )


      isym = 41     inv. 120 deg rotation - cart. axis [-1,-1,-1]

 cryst.   s(41) = (     0          0         -1      )
                  (    -1          0          0      )
                  (     0         -1          0      )

 cart.    s(41) = (  0.0000000 -1.0000000  0.0000000 )
                  (  0.0000000  0.0000000 -1.0000000 )
                  ( -1.0000000  0.0000000  0.0000000 )


      isym = 42     inv. 120 deg rotation - cart. axis [-1,1,1]  

 cryst.   s(42) = (    -1          0          0      )
                  (     0          0         -1      )
                  (     1          1          1      )

 cart.    s(42) = (  0.0000000  1.0000000  0.0000000 )
                  (  0.0000000  0.0000000 -1.0000000 )
                  (  1.0000000  0.0000000  0.0000000 )


      isym = 43     inv. 120 deg rotation - cart. axis [1,1,-1]  

 cryst.   s(43) = (     0         -1          0      )
                  (     1          1          1      )
                  (     0          0         -1      )

 cart.    s(43) = (  0.0000000 -1.0000000  0.0000000 )
                  (  0.0000000  0.0000000  1.0000000 )
                  (  1.0000000  0.0000000  0.0000000 )


      isym = 44     inv. 120 deg rotation - cart. axis [1,-1,1]  

 cryst.   s(44) = (     1          1          1      )
                  (     0         -1          0      )
                  (    -1          0          0      )

 cart.    s(44) = (  0.0000000  1.0000000  0.0000000 )
                  (  0.0000000  0.0000000  1.0000000 )
                  ( -1.0000000  0.0000000  0.0000000 )


      isym = 45     inv. 120 deg rotation - cart. axis [1,1,1]   

 cryst.   s(45) = (     0         -1          0      )
                  (     0          0         -1      )
                  (    -1          0          0      )

 cart.    s(45) = (  0.0000000  0.0000000 -1.0000000 )
                  ( -1.0000000  0.0000000  0.0000000 )
                  (  0.0000000 -1.0000000  0.0000000 )


      isym = 46     inv. 120 deg rotation - cart. axis [-1,1,-1] 

 cryst.   s(46) = (     0          0         -1      )
                  (     0         -1          0      )
                  (     1          1          1      )

 cart.    s(46) = (  0.0000000  0.0000000 -1.0000000 )
                  (  1.0000000  0.0000000  0.0000000 )
                  (  0.0000000  1.0000000  0.0000000 )


      isym = 47     inv. 120 deg rotation - cart. axis [1,-1,-1] 

 cryst.   s(47) = (    -1          0          0      )
                  (     1          1          1      )
                  (     0         -1          0      )

 cart.    s(47) = (  0.0000000  0.0000000  1.0000000 )
                  (  1.0000000  0.0000000  0.0000000 )
                  (  0.0000000 -1.0000000  0.0000000 )


      isym = 48     inv. 120 deg rotation - cart. axis [-1,-1,1] 

 cryst.   s(48) = (     1          1          1      )
                  (    -1          0          0      )
                  (     0          0         -1      )

 cart.    s(48) = (  0.0000000  0.0000000  1.0000000 )
                  ( -1.0000000  0.0000000  0.0000000 )
                  (  0.0000000  1.0000000  0.0000000 )


   Cartesian axes

     site n.     atom                  positions (alat units)
         1           Ta  tau(   1) = (   0.0000000   0.0000000   0.0000000  )

   Crystallographic axes

     site n.     atom                  positions (cryst. coord.)
         1           Ta  tau(   1) = (  0.0000000  0.0000000  0.0000000  )

     number of k points=    50  gaussian smearing, width (Ry)=  0.0010
                       cart. coord. in units 2pi/alat
        k(    1) = (   0.0000000   0.0000000   0.0000000), wk =   0.0400000
        k(    2) = (   0.0000000   0.0618590   0.0000000), wk =   0.0400000
        k(    3) = (   0.0000000   0.1237179   0.0000000), wk =   0.0400000
        k(    4) = (   0.0000000   0.1855769   0.0000000), wk =   0.0400000
        k(    5) = (   0.0000000   0.2474358   0.0000000), wk =   0.0400000
        k(    6) = (   0.0000000   0.3092948   0.0000000), wk =   0.0400000
        k(    7) = (   0.0000000   0.3711537   0.0000000), wk =   0.0400000
        k(    8) = (   0.0000000   0.4330127   0.0000000), wk =   0.0400000
        k(    9) = (   0.0000000   0.4948717   0.0000000), wk =   0.0400000
        k(   10) = (   0.0000000   0.5567306   0.0000000), wk =   0.0400000
        k(   11) = (   0.0000000   0.6185896   0.0000000), wk =   0.0400000
        k(   12) = (   0.0000000   0.6804485   0.0000000), wk =   0.0400000
        k(   13) = (   0.0000000   0.7423075   0.0000000), wk =   0.0400000
        k(   14) = (   0.0000000   0.8041664   0.0000000), wk =   0.0400000
        k(   15) = (   0.0000000   0.8660254   0.0000000), wk =   0.0400000
        k(   16) = (   0.0433013   0.8227241   0.0000000), wk =   0.0400000
        k(   17) = (   0.0866025   0.7794229   0.0000000), wk =   0.0400000
        k(   18) = (   0.1299038   0.7361216   0.0000000), wk =   0.0400000
        k(   19) = (   0.1732051   0.6928203   0.0000000), wk =   0.0400000
        k(   20) = (   0.2165064   0.6495191   0.0000000), wk =   0.0400000
        k(   21) = (   0.2598076   0.6062178   0.0000000), wk =   0.0400000
        k(   22) = (   0.3031089   0.5629165   0.0000000), wk =   0.0400000
        k(   23) = (   0.3464102   0.5196152   0.0000000), wk =   0.0400000
        k(   24) = (   0.3897114   0.4763140   0.0000000), wk =   0.0400000
        k(   25) = (   0.4330127   0.4330127   0.0000000), wk =   0.0400000
        k(   26) = (   0.3936479   0.3936479   0.0000000), wk =   0.0400000
        k(   27) = (   0.3542831   0.3542831   0.0000000), wk =   0.0400000
        k(   28) = (   0.3149183   0.3149183   0.0000000), wk =   0.0400000
        k(   29) = (   0.2755535   0.2755535   0.0000000), wk =   0.0400000
        k(   30) = (   0.2361887   0.2361887   0.0000000), wk =   0.0400000
        k(   31) = (   0.1968240   0.1968240   0.0000000), wk =   0.0400000
        k(   32) = (   0.1574592   0.1574592   0.0000000), wk =   0.0400000
        k(   33) = (   0.1180944   0.1180944   0.0000000), wk =   0.0400000
        k(   34) = (   0.0787296   0.0787296   0.0000000), wk =   0.0400000
        k(   35) = (   0.0393648   0.0393648   0.0000000), wk =   0.0400000
        k(   36) = (   0.0000000   0.0000000   0.0000000), wk =   0.0400000
        k(   37) = (   0.0309295   0.0309295   0.0309295), wk =   0.0400000
        k(   38) = (   0.0618590   0.0618590   0.0618590), wk =   0.0400000
        k(   39) = (   0.0927884   0.0927884   0.0927884), wk =   0.0400000
        k(   40) = (   0.1237179   0.1237179   0.1237179), wk =   0.0400000
        k(   41) = (   0.1546474   0.1546474   0.1546474), wk =   0.0400000
        k(   42) = (   0.1855769   0.1855769   0.1855769), wk =   0.0400000
        k(   43) = (   0.2165064   0.2165064   0.2165064), wk =   0.0400000
        k(   44) = (   0.2474358   0.2474358   0.2474358), wk =   0.0400000
        k(   45) = (   0.2783653   0.2783653   0.2783653), wk =   0.0400000
        k(   46) = (   0.3092948   0.3092948   0.3092948), wk =   0.0400000
        k(   47) = (   0.3402243   0.3402243   0.3402243), wk =   0.0400000
        k(   48) = (   0.3711537   0.3711537   0.3711537), wk =   0.0400000
        k(   49) = (   0.4020832   0.4020832   0.4020832), wk =   0.0400000
        k(   50) = (   0.4330127   0.4330127   0.4330127), wk =   0.0400000

                       cryst. coord.
        k(    1) = (   0.0000000   0.0000000   0.0000000), wk =   0.0400000
        k(    2) = (   0.0357143  -0.0357143   0.0357143), wk =   0.0400000
        k(    3) = (   0.0714286  -0.0714286   0.0714286), wk =   0.0400000
        k(    4) = (   0.1071429  -0.1071429   0.1071429), wk =   0.0400000
        k(    5) = (   0.1428571  -0.1428571   0.1428571), wk =   0.0400000
        k(    6) = (   0.1785714  -0.1785714   0.1785714), wk =   0.0400000
        k(    7) = (   0.2142857  -0.2142857   0.2142857), wk =   0.0400000
        k(    8) = (   0.2500000  -0.2500000   0.2500000), wk =   0.0400000
        k(    9) = (   0.2857143  -0.2857143   0.2857143), wk =   0.0400000
        k(   10) = (   0.3214286  -0.3214286   0.3214286), wk =   0.0400000
        k(   11) = (   0.3571429  -0.3571429   0.3571429), wk =   0.0400000
        k(   12) = (   0.3928571  -0.3928571   0.3928571), wk =   0.0400000
        k(   13) = (   0.4285714  -0.4285714   0.4285714), wk =   0.0400000
        k(   14) = (   0.4642857  -0.4642857   0.4642857), wk =   0.0400000
        k(   15) = (   0.5000000  -0.5000000   0.5000000), wk =   0.0400000
        k(   16) = (   0.4500000  -0.4500000   0.5000000), wk =   0.0400000
        k(   17) = (   0.4000000  -0.4000000   0.5000000), wk =   0.0400000
        k(   18) = (   0.3500000  -0.3500000   0.5000000), wk =   0.0400000
        k(   19) = (   0.3000000  -0.3000000   0.5000000), wk =   0.0400000
        k(   20) = (   0.2500000  -0.2500000   0.5000000), wk =   0.0400000
        k(   21) = (   0.2000000  -0.2000000   0.5000000), wk =   0.0400000
        k(   22) = (   0.1500000  -0.1500000   0.5000000), wk =   0.0400000
        k(   23) = (   0.1000000  -0.1000000   0.5000000), wk =   0.0400000
        k(   24) = (   0.0500000  -0.0500000   0.5000000), wk =   0.0400000
        k(   25) = (   0.0000000   0.0000000   0.5000000), wk =   0.0400000
        k(   26) = (   0.0000000   0.0000000   0.4545455), wk =   0.0400000
        k(   27) = (   0.0000000   0.0000000   0.4090909), wk =   0.0400000
        k(   28) = (   0.0000000   0.0000000   0.3636364), wk =   0.0400000
        k(   29) = (   0.0000000   0.0000000   0.3181818), wk =   0.0400000
        k(   30) = (   0.0000000   0.0000000   0.2727273), wk =   0.0400000
        k(   31) = (   0.0000000   0.0000000   0.2272727), wk =   0.0400000
        k(   32) = (   0.0000000   0.0000000   0.1818182), wk =   0.0400000
        k(   33) = (   0.0000000   0.0000000   0.1363636), wk =   0.0400000
        k(   34) = (   0.0000000   0.0000000   0.0909091), wk =   0.0400000
        k(   35) = (   0.0000000   0.0000000   0.0454545), wk =   0.0400000
        k(   36) = (   0.0000000   0.0000000   0.0000000), wk =   0.0400000
        k(   37) = (   0.0178571   0.0178571   0.0178571), wk =   0.0400000
        k(   38) = (   0.0357143   0.0357143   0.0357143), wk =   0.0400000
        k(   39) = (   0.0535714   0.0535714   0.0535714), wk =   0.0400000
        k(   40) = (   0.0714286   0.0714286   0.0714286), wk =   0.0400000
        k(   41) = (   0.0892857   0.0892857   0.0892857), wk =   0.0400000
        k(   42) = (   0.1071429   0.1071429   0.1071429), wk =   0.0400000
        k(   43) = (   0.1250000   0.1250000   0.1250000), wk =   0.0400000
        k(   44) = (   0.1428571   0.1428571   0.1428571), wk =   0.0400000
        k(   45) = (   0.1607143   0.1607143   0.1607143), wk =   0.0400000
        k(   46) = (   0.1785714   0.1785714   0.1785714), wk =   0.0400000
        k(   47) = (   0.1964286   0.1964286   0.1964286), wk =   0.0400000
        k(   48) = (   0.2142857   0.2142857   0.2142857), wk =   0.0400000
        k(   49) = (   0.2321429   0.2321429   0.2321429), wk =   0.0400000
        k(   50) = (   0.2500000   0.2500000   0.2500000), wk =   0.0400000

     Dense  grid:     5775 G-vectors     FFT dimensions: (  25,  25,  25)

     Smooth grid:     4093 G-vectors     FFT dimensions: (  24,  24,  24)

     Estimated max dynamical RAM per process >       7.15Mb

     The potential is recalculated from file :
     ./pwscf.save/charge-density.dat


     negative rho (up, down):  9.296E-02 0.000E+00
     Starting wfc are   13 randomized atomic wfcs

     Band Structure Calculation
     Davidson diagonalization with overlap

     Computing kpt #:     1
     total cpu time spent up to now is        0.8 secs

     Computing kpt #:     2
     total cpu time spent up to now is        1.0 secs

     Computing kpt #:     3
     total cpu time spent up to now is        1.1 secs

     Computing kpt #:     4
     total cpu time spent up to now is        1.3 secs

     Computing kpt #:     5
     total cpu time spent up to now is        1.5 secs

     Computing kpt #:     6
     total cpu time spent up to now is        1.6 secs

     Computing kpt #:     7
     total cpu time spent up to now is        1.7 secs

     Computing kpt #:     8
     total cpu time spent up to now is        1.8 secs

     Computing kpt #:     9
     total cpu time spent up to now is        2.0 secs

     Computing kpt #:    10
     total cpu time spent up to now is        2.2 secs

     Computing kpt #:    11
     total cpu time spent up to now is        2.3 secs

     Computing kpt #:    12
     total cpu time spent up to now is        2.4 secs

     Computing kpt #:    13
     total cpu time spent up to now is        2.5 secs

     Computing kpt #:    14
     total cpu time spent up to now is        2.7 secs

     Computing kpt #:    15
     total cpu time spent up to now is        2.8 secs

     Computing kpt #:    16
     total cpu time spent up to now is        2.9 secs

     Computing kpt #:    17
     total cpu time spent up to now is        3.1 secs

     Computing kpt #:    18
     total cpu time spent up to now is        3.2 secs

     Computing kpt #:    19
     total cpu time spent up to now is        3.3 secs

     Computing kpt #:    20
     total cpu time spent up to now is        3.5 secs

     Computing kpt #:    21
     total cpu time spent up to now is        3.6 secs

     Computing kpt #:    22
     total cpu time spent up to now is        3.7 secs

     Computing kpt #:    23
     total cpu time spent up to now is        3.8 secs

     Computing kpt #:    24
     total cpu time spent up to now is        4.0 secs

     Computing kpt #:    25
     total cpu time spent up to now is        4.1 secs

     Computing kpt #:    26
     total cpu time spent up to now is        4.3 secs

     Computing kpt #:    27
     total cpu time spent up to now is        4.4 secs

     Computing kpt #:    28
     total cpu time spent up to now is        4.6 secs

     Computing kpt #:    29
     total cpu time spent up to now is        4.7 secs

     Computing kpt #:    30
     total cpu time spent up to now is        4.8 secs

     Computing kpt #:    31
     total cpu time spent up to now is        5.0 secs

     Computing kpt #:    32
     total cpu time spent up to now is        5.1 secs

     Computing kpt #:    33
     total cpu time spent up to now is        5.3 secs

     Computing kpt #:    34
     total cpu time spent up to now is        5.4 secs

     Computing kpt #:    35
     total cpu time spent up to now is        5.6 secs

     Computing kpt #:    36
     total cpu time spent up to now is        5.7 secs

     Computing kpt #:    37
     total cpu time spent up to now is        5.9 secs

     Computing kpt #:    38
     total cpu time spent up to now is        6.0 secs

     Computing kpt #:    39
     total cpu time spent up to now is        6.2 secs

     Computing kpt #:    40
     total cpu time spent up to now is        6.3 secs

     Computing kpt #:    41
     total cpu time spent up to now is        6.5 secs

     Computing kpt #:    42
     total cpu time spent up to now is        6.7 secs

     Computing kpt #:    43
     total cpu time spent up to now is        6.8 secs

     Computing kpt #:    44
     total cpu time spent up to now is        7.0 secs

     Computing kpt #:    45
     total cpu time spent up to now is        7.1 secs

     Computing kpt #:    46
     total cpu time spent up to now is        7.2 secs

     Computing kpt #:    47
     total cpu time spent up to now is        7.3 secs

     Computing kpt #:    48
     total cpu time spent up to now is        7.5 secs

     Computing kpt #:    49
     total cpu time spent up to now is        7.6 secs

     Computing kpt #:    50
     total cpu time spent up to now is        7.7 secs

     ethr =  7.69E-10,  avg # of iterations = 12.6

     total cpu time spent up to now is        7.7 secs

     End of band structure calculation

          k = 0.0000 0.0000 0.0000 (   531 PWs)   bands (ev):

   -48.4580 -14.3732 -14.3732 -14.3732  10.7346  19.4135  19.4135  19.4135
    22.6917  22.6917  33.2554

          k = 0.0000 0.0619 0.0000 (   535 PWs)   bands (ev):

   -48.4551 -14.3962 -14.3832 -14.3832  10.8492  19.3954  19.3954  19.4675
    22.4918  22.7573  33.4544

          k = 0.0000 0.1237 0.0000 (   523 PWs)   bands (ev):

   -48.4467 -14.4585 -14.4123 -14.4123  11.1861  19.3535  19.3535  19.6287
    21.9486  22.9487  34.0353

          k = 0.0000 0.1856 0.0000 (   527 PWs)   bands (ev):

   -48.4332 -14.5550 -14.4601 -14.4601  11.7238  19.3170  19.3170  19.8945
    21.1826  23.2345  34.9183

          k = 0.0000 0.2474 0.0000 (   526 PWs)   bands (ev):

   -48.4156 -14.6717 -14.5234 -14.5234  12.4278  19.3245  19.3245  20.2607
    20.3090  23.5571  35.8625

          k = 0.0000 0.3093 0.0000 (   526 PWs)   bands (ev):

   -48.3949 -14.7946 -14.6000 -14.6000  13.2488  19.4086  19.4114  19.4114
    20.7207  23.8142  34.3073

          k = 0.0000 0.3712 0.0000 (   522 PWs)   bands (ev):

   -48.3725 -14.9108 -14.6860 -14.6860  14.1183  18.5343  19.6067  19.6067
    21.2642  23.8788  33.3315

          k = 0.0000 0.4330 0.0000 (   522 PWs)   bands (ev):

   -48.3496 -15.0111 -14.7775 -14.7775  14.9377  17.7197  19.9298  19.9298
    21.8782  23.7165  33.1379

          k = 0.0000 0.4949 0.0000 (   510 PWs)   bands (ev):

   -48.3274 -15.0888 -14.8690 -14.8690  15.5684  16.9868  20.3946  20.3946
    22.5444  23.5151  33.6357

          k = 0.0000 0.5567 0.0000 (   514 PWs)   bands (ev):

   -48.3069 -15.1439 -14.9571 -14.9571  15.8664  16.3494  21.0068  21.0068
    23.2371  23.5807  34.5756

          k = 0.0000 0.6186 0.0000 (   514 PWs)   bands (ev):

   -48.2891 -15.1766 -15.0366 -15.0366  15.8035  15.8176  21.7675  21.7675
    23.9217  24.0821  32.9660

          k = 0.0000 0.6804 0.0000 (   510 PWs)   bands (ev):

   -48.2747 -15.1920 -15.1030 -15.1030  15.3982  15.5157  22.6721  22.6721
    24.5526  24.9470  31.2323

          k = 0.0000 0.7423 0.0000 (   498 PWs)   bands (ev):

   -48.2641 -15.1962 -15.1526 -15.1526  15.0960  15.1843  23.7060  23.7060
    25.0724  25.9724  29.5916

          k = 0.0000 0.8042 0.0000 (   490 PWs)   bands (ev):

   -48.2576 -15.1950 -15.1838 -15.1838  14.9134  14.9406  24.8095  24.8095
    25.4187  26.8766  28.1180

          k = 0.0000 0.8660 0.0000 (   490 PWs)   bands (ev):

   -48.2554 -15.1945 -15.1945 -15.1945  14.8524  14.8524  25.5408  25.5408
    25.5408  27.2623  27.2623

          k = 0.0433 0.8227 0.0000 (   490 PWs)   bands (ev):

   -48.2576 -15.2035 -15.1841 -15.1757  14.9184  14.9332  24.7173  24.7533
    25.5626  27.2576  27.7781

          k = 0.0866 0.7794 0.0000 (   498 PWs)   bands (ev):

   -48.2637 -15.2299 -15.1539 -15.1219  15.1053  15.1735  23.4029  23.4084
    25.6261  27.2319  28.4268

          k = 0.1299 0.7361 0.0000 (   506 PWs)   bands (ev):

   -48.2733 -15.2707 -15.1068 -15.0364  15.3729  15.5662  22.0755  22.0996
    25.7264  27.1512  28.8980

          k = 0.1732 0.6928 0.0000 (   508 PWs)   bands (ev):

   -48.2853 -15.3217 -15.0467 -14.9258  15.6295  16.1008  20.8797  21.0007
    25.8550  26.9647  29.2568

          k = 0.2165 0.6495 0.0000 (   518 PWs)   bands (ev):

   -48.2987 -15.3779 -14.9794 -14.8018  15.7134  16.7599  19.7903  20.3939
    26.0014  26.6209  29.5586

          k = 0.2598 0.6062 0.0000 (   518 PWs)   bands (ev):

   -48.3120 -15.4331 -14.9113 -14.6742  15.4998  17.5212  18.8618  20.3978
    26.0941  26.1525  29.8249

          k = 0.3031 0.5629 0.0000 (   522 PWs)   bands (ev):

   -48.3240 -15.4823 -14.8487 -14.5579  15.0861  18.1163  18.3516  20.8968
    25.4041  26.2929  30.0527

          k = 0.3464 0.5196 0.0000 (   520 PWs)   bands (ev):

   -48.3335 -15.5212 -14.7983 -14.4632  14.6702  17.5713  19.1925  21.6257
    24.6291  26.4070  30.2315

          k = 0.3897 0.4763 0.0000 (   520 PWs)   bands (ev):

   -48.3395 -15.5459 -14.7659 -14.4017  14.3815  17.2390  19.9172  22.2940
    23.9275  26.4815  30.3453

          k = 0.4330 0.4330 0.0000 (   512 PWs)   bands (ev):

   -48.3416 -15.5541 -14.7540 -14.3800  14.2797  17.1278  20.2398  22.5770
    23.6102  26.5080  30.3660

          k = 0.3936 0.3936 0.0000 (   520 PWs)   bands (ev):

   -48.3440 -15.5323 -14.7471 -14.3802  14.2760  17.1637  20.0027  22.6202
    23.5613  26.2104  30.5170

          k = 0.3543 0.3543 0.0000 (   523 PWs)   bands (ev):

   -48.3510 -15.4676 -14.7254 -14.3797  14.2429  17.2713  19.4663  22.6487
    23.4327  25.4551  30.9476

          k = 0.3149 0.3149 0.0000 (   523 PWs)   bands (ev):

   -48.3619 -15.3638 -14.6910 -14.3789  14.1163  17.4460  18.9198  22.5671
    23.2619  24.4803  31.5995

          k = 0.2756 0.2756 0.0000 (   521 PWs)   bands (ev):

   -48.3759 -15.2288 -14.6459 -14.3777  13.8169  17.6810  18.5754  22.3936
    23.0871  23.4549  32.3890

          k = 0.2362 0.2362 0.0000 (   529 PWs)   bands (ev):

   -48.3918 -15.0715 -14.5949 -14.3772  13.3250  17.9643  18.5151  22.1916
    22.4717  22.9351  33.1926

          k = 0.1968 0.1968 0.0000 (   525 PWs)   bands (ev):

   -48.4084 -14.9036 -14.5403 -14.3760  12.7140  18.2807  18.6809  21.5855
    22.0337  22.8207  33.8101

          k = 0.1575 0.1575 0.0000 (   527 PWs)   bands (ev):

   -48.4242 -14.7390 -14.4876 -14.3753  12.0883  18.6080  18.9446  20.8275
    21.9874  22.7466  34.0239

          k = 0.1181 0.1181 0.0000 (   527 PWs)   bands (ev):

   -48.4381 -14.5910 -14.4409 -14.3748  11.5316  18.9182  19.1837  20.2188
    22.0987  22.7072  33.8636

          k = 0.0787 0.0787 0.0000 (   535 PWs)   bands (ev):

   -48.4488 -14.4747 -14.4045 -14.3744  11.0996  19.1777  19.3314  19.7744
    22.3394  22.6922  33.5734

          k = 0.0394 0.0394 0.0000 (   533 PWs)   bands (ev):

   -48.4557 -14.3995 -14.3812 -14.3734  10.8274  19.3519  19.3966  19.5042
    22.5868  22.6909  33.3412

          k = 0.0000 0.0000 0.0000 (   531 PWs)   bands (ev):

   -48.4580 -14.3732 -14.3732 -14.3732  10.7346  19.4135  19.4135  19.4135
    22.6917  22.6917  33.2554

          k = 0.0309 0.0309 0.0309 (   531 PWs)   bands (ev):

   -48.4558 -14.3997 -14.3758 -14.3758  10.8205  19.3697  19.3697  19.5121
    22.6431  22.6431  33.3068

          k = 0.0619 0.0619 0.0619 (   531 PWs)   bands (ev):

   -48.4495 -14.4753 -14.3839 -14.3839  11.0729  19.2337  19.2337  19.8086
    22.5322  22.5322  33.4609

          k = 0.0928 0.0928 0.0928 (   534 PWs)   bands (ev):

   -48.4396 -14.5912 -14.3979 -14.3979  11.4759  19.0018  19.0018  20.3008
    22.4334  22.4334  33.7178

          k = 0.1237 0.1237 0.1237 (   528 PWs)   bands (ev):

   -48.4267 -14.7333 -14.4174 -14.4174  12.0069  18.6893  18.6893  20.9855
    22.4054  22.4054  34.0773

          k = 0.1546 0.1546 0.1546 (   522 PWs)   bands (ev):

   -48.4120 -14.8852 -14.4441 -14.4441  12.6394  18.3330  18.3330  21.8548
    22.4642  22.4642  34.5394

          k = 0.1856 0.1856 0.1856 (   522 PWs)   bands (ev):

   -48.3966 -15.0310 -14.4788 -14.4788  13.3470  17.9782  17.9782  22.5969
    22.5969  22.8889  35.1040

          k = 0.2165 0.2165 0.2165 (   525 PWs)   bands (ev):

   -48.3814 -15.1565 -14.5214 -14.5214  14.1040  17.6628  17.6628  22.7802
    22.7802  24.0579  34.7312

          k = 0.2474 0.2474 0.2474 (   516 PWs)   bands (ev):

   -48.3676 -15.2488 -14.5714 -14.5714  14.8855  17.4123  17.4123  22.9895
    22.9895  25.3179  33.1580

          k = 0.2784 0.2784 0.2784 (   510 PWs)   bands (ev):

   -48.3558 -15.3011 -14.6288 -14.6288  15.6618  17.2401  17.2401  23.2015
    23.2015  26.6068  31.1668

          k = 0.3093 0.3093 0.3093 (   516 PWs)   bands (ev):

   -48.3466 -15.3107 -14.6926 -14.6926  16.3921  17.1496  17.1496  23.3960
    23.3960  27.8511  29.3594

          k = 0.3402 0.3402 0.3402 (   517 PWs)   bands (ev):

   -48.3401 -15.2761 -14.7607 -14.7607  17.0157  17.1374  17.1374  23.5589
    23.5589  27.8211  28.9803

          k = 0.3712 0.3712 0.3712 (   523 PWs)   bands (ev):

   -48.3362 -15.2018 -14.8315 -14.8315  17.1924  17.1924  17.4454  23.6805
    23.6805  26.6545  29.9490

          k = 0.4021 0.4021 0.4021 (   526 PWs)   bands (ev):

   -48.3343 -15.0957 -14.9023 -14.9023  17.2984  17.2984  17.5915  23.7563
    23.7563  25.9558  30.7639

          k = 0.4330 0.4330 0.4330 (   532 PWs)   bands (ev):

   -48.3339 -14.9703 -14.9703 -14.9703  17.4336  17.4336  17.4336  23.7828
    23.7828  25.7417  31.4827

     Writing output data file pwscf.save

     init_run     :      0.73s CPU      0.56s WALL (       1 calls)
     electrons    :     14.20s CPU      7.02s WALL (       1 calls)

     Called by init_run:
     wfcinit      :      0.00s CPU      0.00s WALL (       1 calls)
     wfcinit:atom :      0.06s CPU      0.02s WALL (      50 calls)
     wfcinit:wfcr :      1.61s CPU      0.75s WALL (      50 calls)
     potinit      :      0.03s CPU      0.02s WALL (       1 calls)

     Called by electrons:
     c_bands      :     14.20s CPU      7.02s WALL (       1 calls)
     v_of_rho     :      0.00s CPU      0.01s WALL (       1 calls)
     v_h          :      0.00s CPU      0.00s WALL (       1 calls)
     v_xc         :      0.00s CPU      0.01s WALL (       1 calls)
     newd         :      0.02s CPU      0.07s WALL (       1 calls)

     Called by c_bands:
     init_us_2    :      0.05s CPU      0.04s WALL (      50 calls)
     cegterg      :     12.17s CPU      6.02s WALL (      54 calls)

     Called by sum_band:

     Called by *egterg:
     h_psi        :      9.69s CPU      4.92s WALL (     734 calls)
     s_psi        :      0.27s CPU      0.09s WALL (     734 calls)
     g_psi        :      0.02s CPU      0.03s WALL (     630 calls)
     cdiaghg      :      2.70s CPU      1.17s WALL (     680 calls)
     cegterg:over :      0.44s CPU      0.19s WALL (     630 calls)
     cegterg:upda :      0.33s CPU      0.17s WALL (     630 calls)
     cegterg:last :      0.03s CPU      0.07s WALL (     114 calls)

     Called by h_psi:
     h_psi:pot    :      9.66s CPU      4.90s WALL (     734 calls)
     h_psi:calbec :      0.08s CPU      0.10s WALL (     734 calls)
     vloc_psi     :      9.42s CPU      4.67s WALL (     734 calls)
     add_vuspsi   :      0.16s CPU      0.11s WALL (     734 calls)

     General routines
     calbec       :      0.06s CPU      0.09s WALL (     734 calls)
     fft          :      0.00s CPU      0.00s WALL (      13 calls)
     ffts         :      0.02s CPU      0.01s WALL (       1 calls)
     fftw         :      8.67s CPU      4.28s WALL (    9056 calls)
     interpolate  :      0.02s CPU      0.01s WALL (       1 calls)
     davcio       :      0.00s CPU      0.00s WALL (      50 calls)

     Parallel routines
     fft_scatter  :      0.39s CPU      0.23s WALL (    9070 calls)

     PWSCF        :    15.30s CPU         8.01s WALL


   This run was terminated on:  22:57:35  25Feb2021            

=------------------------------------------------------------------------------=
   JOB DONE.
=------------------------------------------------------------------------------=
