
     Program PWSCF v.6.0 (svn rev. 13079) starts on 26Feb2021 at  0:36:15 

     This program is part of the open-source Quantum ESPRESSO suite
     for quantum simulation of materials; please cite
         "P. Giannozzi et al., J. Phys.:Condens. Matter 21 395502 (2009);
          URL http://www.quantum-espresso.org", 
     in publications or presentations arising from this work. More details at
     http://www.quantum-espresso.org/quote

     Parallel version (MPI), running on     1 processors
     Reading input from espresso.pwi
Warning: card &IONS ignored
Warning: card / ignored
Warning: card &CELL ignored
Warning: card / ignored

     Current dimensions of program PWSCF are:
     Max number of different atomic species (ntypx) = 10
     Max number of k-points (npk) =  40000
     Max angular momentum in pseudopotentials (lmaxx) =  3
     Message from routine input:
     WARNING: "startingwfc" set to atomic+random may spoil restart

     Atomic positions and unit cell read from directory:
     ./pwscf.save/


     IMPORTANT: XC functional enforced from input :
     Exchange-correlation      = PBE ( 1  4  3  4 0 0)
     Any further DFT definition will be discarded
     Please, verify this is what you really want


     Subspace diagonalization in iterative solution of the eigenvalue problem:
     a serial algorithm will be used


     G-vector sticks info
     --------------------
     sticks:   dense  smooth     PW     G-vecs:    dense   smooth      PW
     Sum         583     475    151                18437    13165    2213



     bravais-lattice index     =            0
     lattice parameter (alat)  =       6.5328  a.u.
     unit-cell volume          =     385.8853 (a.u.)^3
     number of atoms/cell      =            2
     number of atomic types    =            1
     number of electrons       =        26.00
     number of Kohn-Sham states=           17
     kinetic-energy cutoff     =      40.0000  Ry
     charge density cutoff     =     200.0000  Ry
     Exchange-correlation      = PBE ( 1  4  3  4 0 0)

     celldm(1)=   6.532783  celldm(2)=   0.000000  celldm(3)=   0.000000
     celldm(4)=   0.000000  celldm(5)=   0.000000  celldm(6)=   0.000000

     crystal axes: (cart. coord. in units of alat)
               a(1) = (   1.000000   0.000000   0.000000 )  
               a(2) = (  -0.500000   0.866025   0.000000 )  
               a(3) = (   0.000000   0.000000   1.598207 )  

     reciprocal axes: (cart. coord. in units 2 pi/alat)
               b(1) = (  1.000000  0.577350 -0.000000 )  
               b(2) = (  0.000000  1.154701  0.000000 )  
               b(3) = (  0.000000 -0.000000  0.625701 )  


     PseudoPot. # 1 for Tl read from file:
     /home/inukai/tango/tests/1element/qe_fit_v2_Tl/../pseudo/tl_pbe_v1.2.uspp.F.UPF
     MD5 check sum: b76cf1f7e72655a2b2c53cf6385d7059
     Pseudo is Ultrasoft + core correction, Zval = 13.0
     Generated by new atomic code, or converted to UPF format
     Using radial grid of  899 points,  6 beta functions with: 
                l(1) =   0
                l(2) =   0
                l(3) =   1
                l(4) =   1
                l(5) =   2
                l(6) =   2
     Q(r) pseudized with  6 coefficients,  rinner =    1.100   1.100   1.100
                                                       1.100   1.100

     atomic species   valence    mass     pseudopotential
        Tl            13.00   204.38000     Tl( 1.00)

     24 Sym. Ops., with inversion, found (12 have fractional translation)


                                    s                        frac. trans.

      isym =  1     identity                                     

 cryst.   s( 1) = (     1          0          0      )
                  (     0          1          0      )
                  (     0          0          1      )

 cart.    s( 1) = (  1.0000000  0.0000000  0.0000000 )
                  (  0.0000000  1.0000000  0.0000000 )
                  (  0.0000000  0.0000000  1.0000000 )


      isym =  2     180 deg rotation - cart. axis [0,0,1]        

 cryst.   s( 2) = (    -1          0          0      )    f =( -0.3333333 )
                  (     0         -1          0      )       (  0.3333333 )
                  (     0          0          1      )       ( -0.5000000 )

 cart.    s( 2) = ( -1.0000000  0.0000000  0.0000000 )    f =( -0.5000000 )
                  (  0.0000000 -1.0000000  0.0000000 )       (  0.2886751 )
                  (  0.0000000  0.0000000  1.0000000 )       ( -0.7991033 )


      isym =  3     180 deg rotation - cart. axis [0,1,0]        

 cryst.   s( 3) = (    -1          0          0      )
                  (     1          1          0      )
                  (     0          0         -1      )

 cart.    s( 3) = ( -1.0000000  0.0000000  0.0000000 )
                  (  0.0000000  1.0000000  0.0000000 )
                  (  0.0000000  0.0000000 -1.0000000 )


      isym =  4     180 deg rotation - cart. axis [1,0,0]        

 cryst.   s( 4) = (     1          0          0      )    f =( -0.3333333 )
                  (    -1         -1          0      )       (  0.3333333 )
                  (     0          0         -1      )       (  0.5000000 )

 cart.    s( 4) = (  1.0000000  0.0000000  0.0000000 )    f =( -0.5000000 )
                  (  0.0000000 -1.0000000  0.0000000 )       (  0.2886751 )
                  (  0.0000000  0.0000000 -1.0000000 )       (  0.7991033 )


      isym =  5      60 deg rotation - cryst. axis [0,0,1]       

 cryst.   s( 5) = (     1          1          0      )    f =( -0.3333333 )
                  (    -1          0          0      )       (  0.3333333 )
                  (     0          0          1      )       ( -0.5000000 )

 cart.    s( 5) = (  0.5000000 -0.8660254  0.0000000 )    f =( -0.5000000 )
                  (  0.8660254  0.5000000  0.0000000 )       (  0.2886751 )
                  (  0.0000000  0.0000000  1.0000000 )       ( -0.7991033 )


      isym =  6      60 deg rotation - cryst. axis [0,0,-1]      

 cryst.   s( 6) = (     0         -1          0      )    f =( -0.3333333 )
                  (     1          1          0      )       (  0.3333333 )
                  (     0          0          1      )       ( -0.5000000 )

 cart.    s( 6) = (  0.5000000  0.8660254  0.0000000 )    f =( -0.5000000 )
                  ( -0.8660254  0.5000000  0.0000000 )       (  0.2886751 )
                  (  0.0000000  0.0000000  1.0000000 )       ( -0.7991033 )


      isym =  7     120 deg rotation - cryst. axis [0,0,1]       

 cryst.   s( 7) = (     0          1          0      )
                  (    -1         -1          0      )
                  (     0          0          1      )

 cart.    s( 7) = ( -0.5000000 -0.8660254  0.0000000 )
                  (  0.8660254 -0.5000000  0.0000000 )
                  (  0.0000000  0.0000000  1.0000000 )


      isym =  8     120 deg rotation - cryst. axis [0,0,-1]      

 cryst.   s( 8) = (    -1         -1          0      )
                  (     1          0          0      )
                  (     0          0          1      )

 cart.    s( 8) = ( -0.5000000  0.8660254  0.0000000 )
                  ( -0.8660254 -0.5000000  0.0000000 )
                  (  0.0000000  0.0000000  1.0000000 )


      isym =  9     180 deg rotation - cryst. axis [1,-1,0]      

 cryst.   s( 9) = (     0         -1          0      )
                  (    -1          0          0      )
                  (     0          0         -1      )

 cart.    s( 9) = (  0.5000000 -0.8660254  0.0000000 )
                  ( -0.8660254 -0.5000000  0.0000000 )
                  (  0.0000000  0.0000000 -1.0000000 )


      isym = 10     180 deg rotation - cryst. axis [2,1,0]       

 cryst.   s(10) = (     1          1          0      )
                  (     0         -1          0      )
                  (     0          0         -1      )

 cart.    s(10) = (  0.5000000  0.8660254  0.0000000 )
                  (  0.8660254 -0.5000000  0.0000000 )
                  (  0.0000000  0.0000000 -1.0000000 )


      isym = 11     180 deg rotation - cryst. axis [0,1,0]       

 cryst.   s(11) = (    -1         -1          0      )    f =( -0.3333333 )
                  (     0          1          0      )       (  0.3333333 )
                  (     0          0         -1      )       (  0.5000000 )

 cart.    s(11) = ( -0.5000000 -0.8660254  0.0000000 )    f =( -0.5000000 )
                  ( -0.8660254  0.5000000  0.0000000 )       (  0.2886751 )
                  (  0.0000000  0.0000000 -1.0000000 )       (  0.7991033 )


      isym = 12     180 deg rotation - cryst. axis [1,1,0]       

 cryst.   s(12) = (     0          1          0      )    f =( -0.3333333 )
                  (     1          0          0      )       (  0.3333333 )
                  (     0          0         -1      )       (  0.5000000 )

 cart.    s(12) = ( -0.5000000  0.8660254  0.0000000 )    f =( -0.5000000 )
                  (  0.8660254  0.5000000  0.0000000 )       (  0.2886751 )
                  (  0.0000000  0.0000000 -1.0000000 )       (  0.7991033 )


      isym = 13     inversion                                    

 cryst.   s(13) = (    -1          0          0      )    f =( -0.3333333 )
                  (     0         -1          0      )       (  0.3333333 )
                  (     0          0         -1      )       (  0.5000000 )

 cart.    s(13) = ( -1.0000000  0.0000000  0.0000000 )    f =( -0.5000000 )
                  (  0.0000000 -1.0000000  0.0000000 )       (  0.2886751 )
                  (  0.0000000  0.0000000 -1.0000000 )       (  0.7991033 )


      isym = 14     inv. 180 deg rotation - cart. axis [0,0,1]   

 cryst.   s(14) = (     1          0          0      )
                  (     0          1          0      )
                  (     0          0         -1      )

 cart.    s(14) = (  1.0000000  0.0000000  0.0000000 )
                  (  0.0000000  1.0000000  0.0000000 )
                  (  0.0000000  0.0000000 -1.0000000 )


      isym = 15     inv. 180 deg rotation - cart. axis [0,1,0]   

 cryst.   s(15) = (     1          0          0      )    f =( -0.3333333 )
                  (    -1         -1          0      )       (  0.3333333 )
                  (     0          0          1      )       ( -0.5000000 )

 cart.    s(15) = (  1.0000000  0.0000000  0.0000000 )    f =( -0.5000000 )
                  (  0.0000000 -1.0000000  0.0000000 )       (  0.2886751 )
                  (  0.0000000  0.0000000  1.0000000 )       ( -0.7991033 )


      isym = 16     inv. 180 deg rotation - cart. axis [1,0,0]   

 cryst.   s(16) = (    -1          0          0      )
                  (     1          1          0      )
                  (     0          0          1      )

 cart.    s(16) = ( -1.0000000  0.0000000  0.0000000 )
                  (  0.0000000  1.0000000  0.0000000 )
                  (  0.0000000  0.0000000  1.0000000 )


      isym = 17     inv.  60 deg rotation - cryst. axis [0,0,1]  

 cryst.   s(17) = (    -1         -1          0      )
                  (     1          0          0      )
                  (     0          0         -1      )

 cart.    s(17) = ( -0.5000000  0.8660254  0.0000000 )
                  ( -0.8660254 -0.5000000  0.0000000 )
                  (  0.0000000  0.0000000 -1.0000000 )


      isym = 18     inv.  60 deg rotation - cryst. axis [0,0,-1] 

 cryst.   s(18) = (     0          1          0      )
                  (    -1         -1          0      )
                  (     0          0         -1      )

 cart.    s(18) = ( -0.5000000 -0.8660254  0.0000000 )
                  (  0.8660254 -0.5000000  0.0000000 )
                  (  0.0000000  0.0000000 -1.0000000 )


      isym = 19     inv. 120 deg rotation - cryst. axis [0,0,1]  

 cryst.   s(19) = (     0         -1          0      )    f =( -0.3333333 )
                  (     1          1          0      )       (  0.3333333 )
                  (     0          0         -1      )       (  0.5000000 )

 cart.    s(19) = (  0.5000000  0.8660254  0.0000000 )    f =( -0.5000000 )
                  ( -0.8660254  0.5000000  0.0000000 )       (  0.2886751 )
                  (  0.0000000  0.0000000 -1.0000000 )       (  0.7991033 )


      isym = 20     inv. 120 deg rotation - cryst. axis [0,0,-1] 

 cryst.   s(20) = (     1          1          0      )    f =( -0.3333333 )
                  (    -1          0          0      )       (  0.3333333 )
                  (     0          0         -1      )       (  0.5000000 )

 cart.    s(20) = (  0.5000000 -0.8660254  0.0000000 )    f =( -0.5000000 )
                  (  0.8660254  0.5000000  0.0000000 )       (  0.2886751 )
                  (  0.0000000  0.0000000 -1.0000000 )       (  0.7991033 )


      isym = 21     inv. 180 deg rotation - cryst. axis [1,-1,0] 

 cryst.   s(21) = (     0          1          0      )    f =( -0.3333333 )
                  (     1          0          0      )       (  0.3333333 )
                  (     0          0          1      )       ( -0.5000000 )

 cart.    s(21) = ( -0.5000000  0.8660254  0.0000000 )    f =( -0.5000000 )
                  (  0.8660254  0.5000000  0.0000000 )       (  0.2886751 )
                  (  0.0000000  0.0000000  1.0000000 )       ( -0.7991033 )


      isym = 22     inv. 180 deg rotation - cryst. axis [2,1,0]  

 cryst.   s(22) = (    -1         -1          0      )    f =( -0.3333333 )
                  (     0          1          0      )       (  0.3333333 )
                  (     0          0          1      )       ( -0.5000000 )

 cart.    s(22) = ( -0.5000000 -0.8660254  0.0000000 )    f =( -0.5000000 )
                  ( -0.8660254  0.5000000  0.0000000 )       (  0.2886751 )
                  (  0.0000000  0.0000000  1.0000000 )       ( -0.7991033 )


      isym = 23     inv. 180 deg rotation - cryst. axis [0,1,0]  

 cryst.   s(23) = (     1          1          0      )
                  (     0         -1          0      )
                  (     0          0          1      )

 cart.    s(23) = (  0.5000000  0.8660254  0.0000000 )
                  (  0.8660254 -0.5000000  0.0000000 )
                  (  0.0000000  0.0000000  1.0000000 )


      isym = 24     inv. 180 deg rotation - cryst. axis [1,1,0]  

 cryst.   s(24) = (     0         -1          0      )
                  (    -1          0          0      )
                  (     0          0          1      )

 cart.    s(24) = (  0.5000000 -0.8660254  0.0000000 )
                  ( -0.8660254 -0.5000000  0.0000000 )
                  (  0.0000000  0.0000000  1.0000000 )


   Cartesian axes

     site n.     atom                  positions (alat units)
         1           Tl  tau(   1) = (   0.0000000   0.0000000   0.0000000  )
         2           Tl  tau(   2) = (  -0.0000000   0.5773503   0.7991033  )

   Crystallographic axes

     site n.     atom                  positions (cryst. coord.)
         1           Tl  tau(   1) = (  0.0000000  0.0000000  0.0000000  )
         2           Tl  tau(   2) = (  0.3333333  0.6666667  0.5000000  )

     number of k points=    50  gaussian smearing, width (Ry)=  0.0010
                       cart. coord. in units 2pi/alat
        k(    1) = (   0.0000000   0.0000000   0.0000000), wk =   0.0400000
        k(    2) = (   0.0357143   0.0206197   0.0000000), wk =   0.0400000
        k(    3) = (   0.0714286   0.0412393   0.0000000), wk =   0.0400000
        k(    4) = (   0.1071429   0.0618590   0.0000000), wk =   0.0400000
        k(    5) = (   0.1428571   0.0824786   0.0000000), wk =   0.0400000
        k(    6) = (   0.1785714   0.1030983   0.0000000), wk =   0.0400000
        k(    7) = (   0.2142857   0.1237179   0.0000000), wk =   0.0400000
        k(    8) = (   0.2500000   0.1443376   0.0000000), wk =   0.0400000
        k(    9) = (   0.2857143   0.1649572   0.0000000), wk =   0.0400000
        k(   10) = (   0.3214286   0.1855769   0.0000000), wk =   0.0400000
        k(   11) = (   0.3571429   0.2061965   0.0000000), wk =   0.0400000
        k(   12) = (   0.3928571   0.2268162   0.0000000), wk =   0.0400000
        k(   13) = (   0.4285714   0.2474358   0.0000000), wk =   0.0400000
        k(   14) = (   0.4642857   0.2680555   0.0000000), wk =   0.0400000
        k(   15) = (   0.5000000   0.2886751   0.0000000), wk =   0.0400000
        k(   16) = (   0.4791667   0.3247595   0.0000000), wk =   0.0400000
        k(   17) = (   0.4583333   0.3608439   0.0000000), wk =   0.0400000
        k(   18) = (   0.4375000   0.3969283   0.0000000), wk =   0.0400000
        k(   19) = (   0.4166667   0.4330127   0.0000000), wk =   0.0400000
        k(   20) = (   0.3958333   0.4690971   0.0000000), wk =   0.0400000
        k(   21) = (   0.3750000   0.5051815   0.0000000), wk =   0.0400000
        k(   22) = (   0.3541667   0.5412659   0.0000000), wk =   0.0400000
        k(   23) = (   0.3333333   0.5773503   0.0000000), wk =   0.0400000
        k(   24) = (   0.3148148   0.5452753   0.0000000), wk =   0.0400000
        k(   25) = (   0.2962963   0.5132002   0.0000000), wk =   0.0400000
        k(   26) = (   0.2777778   0.4811252   0.0000000), wk =   0.0400000
        k(   27) = (   0.2592593   0.4490502   0.0000000), wk =   0.0400000
        k(   28) = (   0.2407407   0.4169752   0.0000000), wk =   0.0400000
        k(   29) = (   0.2222222   0.3849002   0.0000000), wk =   0.0400000
        k(   30) = (   0.2037037   0.3528252   0.0000000), wk =   0.0400000
        k(   31) = (   0.1851852   0.3207501   0.0000000), wk =   0.0400000
        k(   32) = (   0.1666667   0.2886751   0.0000000), wk =   0.0400000
        k(   33) = (   0.1481481   0.2566001   0.0000000), wk =   0.0400000
        k(   34) = (   0.1296296   0.2245251   0.0000000), wk =   0.0400000
        k(   35) = (   0.1111111   0.1924501   0.0000000), wk =   0.0400000
        k(   36) = (   0.0925926   0.1603751   0.0000000), wk =   0.0400000
        k(   37) = (   0.0740741   0.1283001   0.0000000), wk =   0.0400000
        k(   38) = (   0.0555556   0.0962250   0.0000000), wk =   0.0400000
        k(   39) = (   0.0370370   0.0641500   0.0000000), wk =   0.0400000
        k(   40) = (   0.0185185   0.0320750   0.0000000), wk =   0.0400000
        k(   41) = (   0.0000000   0.0000000   0.0000000), wk =   0.0400000
        k(   42) = (   0.0000000   0.0000000   0.0347612), wk =   0.0400000
        k(   43) = (   0.0000000   0.0000000   0.0695224), wk =   0.0400000
        k(   44) = (   0.0000000   0.0000000   0.1042836), wk =   0.0400000
        k(   45) = (   0.0000000   0.0000000   0.1390447), wk =   0.0400000
        k(   46) = (   0.0000000   0.0000000   0.1738059), wk =   0.0400000
        k(   47) = (   0.0000000   0.0000000   0.2085671), wk =   0.0400000
        k(   48) = (   0.0000000   0.0000000   0.2433283), wk =   0.0400000
        k(   49) = (   0.0000000   0.0000000   0.2780895), wk =   0.0400000
        k(   50) = (   0.0000000   0.0000000   0.3128507), wk =   0.0400000

                       cryst. coord.
        k(    1) = (   0.0000000   0.0000000   0.0000000), wk =   0.0400000
        k(    2) = (   0.0357143   0.0000000   0.0000000), wk =   0.0400000
        k(    3) = (   0.0714286   0.0000000   0.0000000), wk =   0.0400000
        k(    4) = (   0.1071429   0.0000000   0.0000000), wk =   0.0400000
        k(    5) = (   0.1428571   0.0000000   0.0000000), wk =   0.0400000
        k(    6) = (   0.1785714   0.0000000   0.0000000), wk =   0.0400000
        k(    7) = (   0.2142857   0.0000000   0.0000000), wk =   0.0400000
        k(    8) = (   0.2500000   0.0000000   0.0000000), wk =   0.0400000
        k(    9) = (   0.2857143   0.0000000   0.0000000), wk =   0.0400000
        k(   10) = (   0.3214286   0.0000000   0.0000000), wk =   0.0400000
        k(   11) = (   0.3571429   0.0000000   0.0000000), wk =   0.0400000
        k(   12) = (   0.3928571   0.0000000   0.0000000), wk =   0.0400000
        k(   13) = (   0.4285714   0.0000000   0.0000000), wk =   0.0400000
        k(   14) = (   0.4642857   0.0000000   0.0000000), wk =   0.0400000
        k(   15) = (   0.5000000   0.0000000   0.0000000), wk =   0.0400000
        k(   16) = (   0.4791667   0.0416667   0.0000000), wk =   0.0400000
        k(   17) = (   0.4583333   0.0833333   0.0000000), wk =   0.0400000
        k(   18) = (   0.4375000   0.1250000   0.0000000), wk =   0.0400000
        k(   19) = (   0.4166667   0.1666667   0.0000000), wk =   0.0400000
        k(   20) = (   0.3958333   0.2083333   0.0000000), wk =   0.0400000
        k(   21) = (   0.3750000   0.2500000   0.0000000), wk =   0.0400000
        k(   22) = (   0.3541667   0.2916667   0.0000000), wk =   0.0400000
        k(   23) = (   0.3333333   0.3333333   0.0000000), wk =   0.0400000
        k(   24) = (   0.3148148   0.3148148   0.0000000), wk =   0.0400000
        k(   25) = (   0.2962963   0.2962963   0.0000000), wk =   0.0400000
        k(   26) = (   0.2777778   0.2777778   0.0000000), wk =   0.0400000
        k(   27) = (   0.2592593   0.2592593   0.0000000), wk =   0.0400000
        k(   28) = (   0.2407407   0.2407407   0.0000000), wk =   0.0400000
        k(   29) = (   0.2222222   0.2222222   0.0000000), wk =   0.0400000
        k(   30) = (   0.2037037   0.2037037   0.0000000), wk =   0.0400000
        k(   31) = (   0.1851852   0.1851852   0.0000000), wk =   0.0400000
        k(   32) = (   0.1666667   0.1666667   0.0000000), wk =   0.0400000
        k(   33) = (   0.1481481   0.1481481   0.0000000), wk =   0.0400000
        k(   34) = (   0.1296296   0.1296296   0.0000000), wk =   0.0400000
        k(   35) = (   0.1111111   0.1111111   0.0000000), wk =   0.0400000
        k(   36) = (   0.0925926   0.0925926   0.0000000), wk =   0.0400000
        k(   37) = (   0.0740741   0.0740741   0.0000000), wk =   0.0400000
        k(   38) = (   0.0555556   0.0555556   0.0000000), wk =   0.0400000
        k(   39) = (   0.0370370   0.0370370   0.0000000), wk =   0.0400000
        k(   40) = (   0.0185185   0.0185185   0.0000000), wk =   0.0400000
        k(   41) = (   0.0000000   0.0000000   0.0000000), wk =   0.0400000
        k(   42) = (   0.0000000   0.0000000   0.0555556), wk =   0.0400000
        k(   43) = (   0.0000000   0.0000000   0.1111111), wk =   0.0400000
        k(   44) = (   0.0000000   0.0000000   0.1666667), wk =   0.0400000
        k(   45) = (   0.0000000   0.0000000   0.2222222), wk =   0.0400000
        k(   46) = (   0.0000000   0.0000000   0.2777778), wk =   0.0400000
        k(   47) = (   0.0000000   0.0000000   0.3333333), wk =   0.0400000
        k(   48) = (   0.0000000   0.0000000   0.3888889), wk =   0.0400000
        k(   49) = (   0.0000000   0.0000000   0.4444444), wk =   0.0400000
        k(   50) = (   0.0000000   0.0000000   0.5000000), wk =   0.0400000

     Dense  grid:    18437 G-vectors     FFT dimensions: (  30,  30,  48)

     Smooth grid:    13165 G-vectors     FFT dimensions: (  27,  27,  45)

     Estimated max dynamical RAM per process >      31.49Mb

     Check: negative/imaginary core charge=   -0.000006    0.000000

     The potential is recalculated from file :
     ./pwscf.save/charge-density.dat


     negative rho (up, down):  1.060E-01 0.000E+00
     Starting wfc are   18 randomized atomic wfcs

     Band Structure Calculation
     Davidson diagonalization with overlap

     Computing kpt #:     1
     total cpu time spent up to now is        1.7 secs

     Computing kpt #:     2
     total cpu time spent up to now is        2.7 secs

     Computing kpt #:     3
     total cpu time spent up to now is        3.8 secs

     Computing kpt #:     4
     total cpu time spent up to now is        4.8 secs

     Computing kpt #:     5
     c_bands:  1 eigenvalues not converged
     total cpu time spent up to now is        7.1 secs

     Computing kpt #:     6
     total cpu time spent up to now is        8.4 secs

     Computing kpt #:     7
     total cpu time spent up to now is        9.4 secs

     Computing kpt #:     8
     total cpu time spent up to now is       10.4 secs

     Computing kpt #:     9
     total cpu time spent up to now is       11.2 secs

     Computing kpt #:    10
     total cpu time spent up to now is       12.1 secs

     Computing kpt #:    11
     total cpu time spent up to now is       12.9 secs

     Computing kpt #:    12
     total cpu time spent up to now is       13.7 secs

     Computing kpt #:    13
     total cpu time spent up to now is       14.4 secs

     Computing kpt #:    14
     total cpu time spent up to now is       15.2 secs

     Computing kpt #:    15
     total cpu time spent up to now is       16.0 secs

     Computing kpt #:    16
     total cpu time spent up to now is       16.7 secs

     Computing kpt #:    17
     total cpu time spent up to now is       17.5 secs

     Computing kpt #:    18
     total cpu time spent up to now is       18.3 secs

     Computing kpt #:    19
     total cpu time spent up to now is       19.1 secs

     Computing kpt #:    20
     total cpu time spent up to now is       19.9 secs

     Computing kpt #:    21
     total cpu time spent up to now is       21.2 secs

     Computing kpt #:    22
     total cpu time spent up to now is       22.0 secs

     Computing kpt #:    23
     total cpu time spent up to now is       22.9 secs

     Computing kpt #:    24
     total cpu time spent up to now is       23.8 secs

     Computing kpt #:    25
     total cpu time spent up to now is       24.6 secs

     Computing kpt #:    26
     total cpu time spent up to now is       25.6 secs

     Computing kpt #:    27
     total cpu time spent up to now is       26.6 secs

     Computing kpt #:    28
     total cpu time spent up to now is       27.5 secs

     Computing kpt #:    29
     total cpu time spent up to now is       28.4 secs

     Computing kpt #:    30
     total cpu time spent up to now is       29.4 secs

     Computing kpt #:    31
     total cpu time spent up to now is       30.4 secs

     Computing kpt #:    32
     total cpu time spent up to now is       31.4 secs

     Computing kpt #:    33
     total cpu time spent up to now is       32.5 secs

     Computing kpt #:    34
     total cpu time spent up to now is       33.6 secs

     Computing kpt #:    35
     total cpu time spent up to now is       34.6 secs

     Computing kpt #:    36
     total cpu time spent up to now is       35.6 secs

     Computing kpt #:    37
     total cpu time spent up to now is       36.6 secs

     Computing kpt #:    38
     total cpu time spent up to now is       37.6 secs

     Computing kpt #:    39
     total cpu time spent up to now is       38.7 secs

     Computing kpt #:    40
     total cpu time spent up to now is       39.7 secs

     Computing kpt #:    41
     total cpu time spent up to now is       40.8 secs

     Computing kpt #:    42
     total cpu time spent up to now is       41.8 secs

     Computing kpt #:    43
     total cpu time spent up to now is       43.0 secs

     Computing kpt #:    44
     total cpu time spent up to now is       44.0 secs

     Computing kpt #:    45
     total cpu time spent up to now is       45.0 secs

     Computing kpt #:    46
     total cpu time spent up to now is       45.8 secs

     Computing kpt #:    47
     total cpu time spent up to now is       46.7 secs

     Computing kpt #:    48
     total cpu time spent up to now is       47.6 secs

     Computing kpt #:    49
     total cpu time spent up to now is       48.7 secs

     Computing kpt #:    50
     total cpu time spent up to now is       49.7 secs

     ethr =  3.85E-10,  avg # of iterations = 25.0

     total cpu time spent up to now is       49.7 secs

     End of band structure calculation

          k = 0.0000 0.0000 0.0000 (  1689 PWs)   bands (ev):

    -1.0525  -0.8250  -0.8058  -0.8058  -0.7528  -0.7528  -0.6894  -0.6894
    -0.3503  -0.3503   0.7021   5.6410   7.9105  18.7222  18.7222  20.8007
    20.8007

          k = 0.0357 0.0206 0.0000 (  1683 PWs)   bands (ev):

    -1.0478  -0.8344  -0.8005  -0.7946  -0.7529  -0.7475  -0.6922  -0.6917
    -0.3560  -0.3493   0.7262   5.6561   7.9422  18.3721  18.5868  20.3720
    20.8940

          k = 0.0714 0.0412 0.0000 (  1677 PWs)   bands (ev):

    -1.0349  -0.8496  -0.7837  -0.7758  -0.7537  -0.7322  -0.7016  -0.6992
    -0.3722  -0.3461   0.7987   5.7018   8.0367  17.5626  18.2524  19.8693
    21.0845

          k = 0.1071 0.0619 0.0000 (  1661 PWs)   bands (ev):

    -1.0181  -0.8627  -0.7636  -0.7572  -0.7446  -0.7168  -0.7109  -0.7071
    -0.3963  -0.3415   0.9207   5.7784   8.1923  16.5823  17.8262  19.3304
    21.2203

          k = 0.1429 0.0825 0.0000 (  1667 PWs)   bands (ev):

    -1.0066  -0.8683  -0.7677  -0.7393  -0.7259  -0.7218  -0.7172  -0.6739
    -0.4269  -0.3359   1.0935   5.8865   8.4059  15.5534  17.3706  18.7015
    20.9518

          k = 0.1786 0.1031 0.0000 (  1667 PWs)   bands (ev):

    -1.0092  -0.8620  -0.7727  -0.7674  -0.7435  -0.6825  -0.6793  -0.6332
    -0.4605  -0.3299   1.3177   6.0264   8.6741  14.5246  16.9168  17.9558
    20.2713

          k = 0.2143 0.1237 0.0000 (  1665 PWs)   bands (ev):

    -1.0259  -0.8539  -0.8008  -0.7684  -0.7621  -0.6432  -0.6313  -0.5875
    -0.4941  -0.3239   1.5934   6.1970   8.9925  13.5208  16.4822  17.1140
    19.5090

          k = 0.2500 0.1443 0.0000 (  1665 PWs)   bands (ev):

    -1.0501  -0.8581  -0.8382  -0.7809  -0.7486  -0.6001  -0.5805  -0.5384
    -0.5255  -0.3183   1.9200   6.3941   9.3564  12.5600  16.0779  16.2220
    18.7263

          k = 0.2857 0.1650 0.0000 (  1643 PWs)   bands (ev):

    -1.0764  -0.8768  -0.8718  -0.7986  -0.7203  -0.5544  -0.5533  -0.5294
    -0.4878  -0.3127   2.2960   6.6071   9.7605  11.6627  15.3207  15.7122
    17.9497

          k = 0.3214 0.1856 0.0000 (  1642 PWs)   bands (ev):

    -1.1026  -0.9150  -0.8894  -0.8153  -0.6918  -0.5778  -0.5094  -0.4806
    -0.4389  -0.3084   2.7189   6.8109  10.1980  10.8608  14.4380  15.3915
    17.1939

          k = 0.3571 0.2062 0.0000 (  1648 PWs)   bands (ev):

    -1.1264  -0.9500  -0.9071  -0.8301  -0.6670  -0.5978  -0.4683  -0.4368
    -0.3941  -0.3049   3.1845   6.9505  10.2143  10.6600  13.5937  15.1214
    16.4709

          k = 0.3929 0.2268 0.0000 (  1640 PWs)   bands (ev):

    -1.1462  -0.9793  -0.9223  -0.8420  -0.6467  -0.6131  -0.4329  -0.4000
    -0.3557  -0.3021   3.6856   6.9304   9.8219  11.1314  12.8055  14.9063
    15.7965

          k = 0.4286 0.2474 0.0000 (  1636 PWs)   bands (ev):

    -1.1611  -1.0016  -0.9340  -0.8509  -0.6318  -0.6242  -0.4060  -0.3724
    -0.3263  -0.3003   4.2065   6.6828   9.7520  11.5827  12.0971  14.7499
    15.2006

          k = 0.4643 0.2681 0.0000 (  1628 PWs)   bands (ev):

    -1.1703  -1.0151  -0.9413  -0.8563  -0.6307  -0.6227  -0.3894  -0.3551
    -0.3081  -0.2989   4.7002   6.2939   9.9156  11.5236  11.9478  14.6549
    14.7489

          k = 0.5000 0.2887 0.0000 (  1622 PWs)   bands (ev):

    -1.1733  -1.0197  -0.9438  -0.8581  -0.6329  -0.6195  -0.3839  -0.3488
    -0.3017  -0.2983   4.9649   6.0526  10.0512  11.2626  12.0998  14.5680
    14.6231

          k = 0.4792 0.3248 0.0000 (  1632 PWs)   bands (ev):

    -1.1649  -1.0221  -0.9366  -0.8556  -0.6346  -0.6196  -0.4001  -0.3412
    -0.3060  -0.3006   4.9830   6.0691  10.0583  11.2923  12.1295  14.4135
    14.5751

          k = 0.4583 0.3608 0.0000 (  1628 PWs)   bands (ev):

    -1.1399  -1.0282  -0.9154  -0.8482  -0.6394  -0.6194  -0.4335  -0.3320
    -0.3177  -0.3057   5.0375   6.1166  10.0750  11.3812  12.2181  13.9082
    14.5938

          k = 0.4375 0.3969 0.0000 (  1644 PWs)   bands (ev):

    -1.1004  -1.0373  -0.8851  -0.8372  -0.6480  -0.6176  -0.4758  -0.3356
    -0.3286  -0.3136   5.1289   6.1896  10.0849  11.5274  12.3647  13.3077
    14.6164

          k = 0.4167 0.4330 0.0000 (  1638 PWs)   bands (ev):

    -1.0482  -1.0476  -0.8509  -0.8224  -0.6603  -0.6115  -0.5235  -0.3569
    -0.3310  -0.3218   5.2577   6.2769  10.0546  11.7279  12.5674  12.7609
    14.6271

          k = 0.3958 0.4691 0.0000 (  1646 PWs)   bands (ev):

    -1.0582  -0.9876  -0.8226  -0.8050  -0.6767  -0.5975  -0.5747  -0.3794
    -0.3389  -0.3294   5.4246   6.3579   9.9394  11.9770  12.3823  12.8239
    14.5979

          k = 0.3750 0.5052 0.0000 (  1654 PWs)   bands (ev):

    -1.0675  -0.9229  -0.8084  -0.7854  -0.6967  -0.6257  -0.5745  -0.3970
    -0.3517  -0.3355   5.6291   6.3973   9.7346  12.2378  12.2609  13.1317
    14.4877

          k = 0.3542 0.5413 0.0000 (  1642 PWs)   bands (ev):

    -1.0737  -0.8618  -0.8100  -0.7640  -0.7187  -0.6695  -0.5504  -0.4028
    -0.3686  -0.3389   5.8694   6.3418   9.5279  12.3069  12.5292  13.4880
    13.8969

          k = 0.3333 0.5774 0.0000 (  1638 PWs)   bands (ev):

    -1.0760  -0.8233  -0.8233  -0.7415  -0.7415  -0.6908  -0.5408  -0.3892
    -0.3892  -0.3399   6.1399   6.1399   9.4409  12.5292  12.5292  13.5534
    13.8897

          k = 0.3148 0.5453 0.0000 (  1644 PWs)   bands (ev):

    -1.0740  -0.8403  -0.8267  -0.7614  -0.7210  -0.6730  -0.5468  -0.4104
    -0.3659  -0.3392   5.8307   6.3969   9.5139  12.1373  12.8177  13.4783
    13.7490

          k = 0.2963 0.5132 0.0000 (  1644 PWs)   bands (ev):

    -1.0670  -0.8593  -0.8504  -0.7794  -0.6998  -0.6370  -0.5605  -0.4334
    -0.3419  -0.3372   5.4299   6.6542   9.7214  11.6808  13.0177  13.1720
    14.1301

          k = 0.2778 0.4811 0.0000 (  1653 PWs)   bands (ev):

    -1.0551  -0.8783  -0.8771  -0.7949  -0.6786  -0.6013  -0.5783  -0.4585
    -0.3347  -0.3240   4.9764   6.8878  10.0375  11.3009  12.5335  13.5812
    14.5815

          k = 0.2593 0.4491 0.0000 (  1647 PWs)   bands (ev):

    -1.0373  -0.9003  -0.8955  -0.8064  -0.6570  -0.5978  -0.5721  -0.4842
    -0.3315  -0.3173   4.5012   7.0635  10.4393  11.0584  12.0432  14.0389
    15.0769

          k = 0.2407 0.4170 0.0000 (  1663 PWs)   bands (ev):

    -1.0146  -0.9191  -0.9108  -0.8142  -0.6363  -0.6189  -0.5529  -0.5101
    -0.3289  -0.3230   4.0254   7.1456  10.9107  10.9972  11.5584  14.5407
    15.6070

          k = 0.2222 0.3849 0.0000 (  1653 PWs)   bands (ev):

    -0.9865  -0.9312  -0.9231  -0.8173  -0.6405  -0.6150  -0.5496  -0.5296
    -0.3410  -0.3261   3.5626   7.1188  11.0871  11.1354  11.4408  15.0831
    16.1669

          k = 0.2037 0.3528 0.0000 (  1643 PWs)   bands (ev):

    -0.9534  -0.9382  -0.9327  -0.8158  -0.6619  -0.5929  -0.5708  -0.5346
    -0.3719  -0.3240   3.1219   7.0005  10.6347  11.4553  12.0217  15.6627
    16.7527

          k = 0.1852 0.3208 0.0000 (  1639 PWs)   bands (ev):

    -0.9405  -0.9398  -0.9174  -0.8103  -0.6829  -0.5972  -0.5707  -0.5425
    -0.4134  -0.3231   2.7096   6.8267  10.2057  11.9193  12.6469  16.2759
    17.3601

          k = 0.1667 0.2887 0.0000 (  1655 PWs)   bands (ev):

    -0.9471  -0.9371  -0.8800  -0.8013  -0.7024  -0.6240  -0.5577  -0.5480
    -0.4644  -0.3236   2.3303   6.6304   9.8037  12.4908  13.3106  16.9170
    17.9838

          k = 0.1481 0.2566 0.0000 (  1657 PWs)   bands (ev):

    -0.9540  -0.9300  -0.8421  -0.7887  -0.7195  -0.6499  -0.5785  -0.5238
    -0.5207  -0.3249   1.9874   6.4342   9.4321  13.1427  14.0070  17.5770
    18.6153

          k = 0.1296 0.2245 0.0000 (  1663 PWs)   bands (ev):

    -0.9624  -0.9195  -0.8063  -0.7740  -0.7336  -0.6749  -0.6044  -0.5789
    -0.4977  -0.3273   1.6832   6.2514   9.0941  13.8555  14.7295  18.2386
    19.2404

          k = 0.1111 0.1925 0.0000 (  1663 PWs)   bands (ev):

    -0.9735  -0.9066  -0.7741  -0.7575  -0.7436  -0.6985  -0.6355  -0.6332
    -0.4698  -0.3306   1.4196   6.0892   8.7928  14.6147  15.4702  18.8670
    19.8328

          k = 0.0926 0.1604 0.0000 (  1663 PWs)   bands (ev):

    -0.9877  -0.8921  -0.7496  -0.7465  -0.7404  -0.7208  -0.6869  -0.6634
    -0.4410  -0.3346   1.1974   5.9512   8.5311  15.4075  16.2183  19.3939
    20.3439

          k = 0.0741 0.1283 0.0000 (  1673 PWs)   bands (ev):

    -1.0049  -0.8771  -0.7528  -0.7417  -0.7306  -0.7249  -0.7241  -0.6923
    -0.4130  -0.3391   1.0171   5.8385   8.3121  16.2196  16.9559  19.7380
    20.7036

          k = 0.0556 0.0962 0.0000 (  1681 PWs)   bands (ev):

    -1.0226  -0.8618  -0.7642  -0.7615  -0.7538  -0.7173  -0.7099  -0.7089
    -0.3879  -0.3436   0.8781   5.7516   8.1384  17.0310  17.6493  19.9279
    20.8774

          k = 0.0370 0.0642 0.0000 (  1679 PWs)   bands (ev):

    -1.0379  -0.8467  -0.7875  -0.7800  -0.7534  -0.7365  -0.6988  -0.6978
    -0.3679  -0.3471   0.7799   5.6900   8.0124  17.8030  18.2310  20.1154
    20.9116

          k = 0.0185 0.0321 0.0000 (  1679 PWs)   bands (ev):

    -1.0486  -0.8330  -0.8013  -0.7961  -0.7527  -0.7486  -0.6916  -0.6914
    -0.3549  -0.3494   0.7215   5.6532   7.9361  18.4423  18.6029  20.4376
    20.8595

          k = 0.0000 0.0000 0.0000 (  1689 PWs)   bands (ev):

    -1.0525  -0.8250  -0.8058  -0.8058  -0.7528  -0.7528  -0.6894  -0.6894
    -0.3503  -0.3503   0.7021   5.6410   7.9105  18.7222  18.7222  20.8007
    20.8007

          k = 0.0000 0.0000 0.0348 (  1677 PWs)   bands (ev):

    -1.0503  -0.8247  -0.8097  -0.8097  -0.7544  -0.7544  -0.6820  -0.6820
    -0.3514  -0.3514   0.7189   5.4786   8.1065  18.7358  18.7358  20.7844
    20.7844

          k = 0.0000 0.0000 0.0695 (  1683 PWs)   bands (ev):

    -1.0440  -0.8264  -0.8193  -0.8193  -0.7598  -0.7598  -0.6637  -0.6637
    -0.3550  -0.3550   0.7696   5.0991   8.5869  18.7765  18.7765  20.7181
    20.7358

          k = 0.0000 0.0000 0.1043 (  1689 PWs)   bands (ev):

    -1.0336  -0.8304  -0.8304  -0.8301  -0.7685  -0.7685  -0.6383  -0.6383
    -0.3607  -0.3607   0.8550   4.6407   9.2131  18.8437  18.8437  19.8566
    20.6553

          k = 0.0000 0.0000 0.1390 (  1677 PWs)   bands (ev):

    -1.0189  -0.8392  -0.8392  -0.8361  -0.7791  -0.7791  -0.6093  -0.6093
    -0.3692  -0.3692   0.9761   4.1680   9.9208  18.9113  18.9362  18.9362
    20.5449

          k = 0.0000 0.0000 0.1738 (  1677 PWs)   bands (ev):

    -1.0013  -0.8458  -0.8458  -0.8455  -0.7915  -0.7915  -0.5784  -0.5784
    -0.3809  -0.3809   1.1339   3.7066  10.6836  17.9375  19.0526  19.0526
    20.4073

          k = 0.0000 0.0000 0.2086 (  1659 PWs)   bands (ev):

    -0.9809  -0.8576  -0.8489  -0.8489  -0.8042  -0.8042  -0.5468  -0.5468
    -0.3956  -0.3956   1.3290   3.2682  11.4896  16.9601  19.1906  19.1906
    20.2476

          k = 0.0000 0.0000 0.2433 (  1647 PWs)   bands (ev):

    -0.9585  -0.8735  -0.8484  -0.8484  -0.8168  -0.8168  -0.5159  -0.5159
    -0.4137  -0.4137   1.5617   2.8587  12.3322  15.9918  19.3473  19.3473
    20.0720

          k = 0.0000 0.0000 0.2781 (  1647 PWs)   bands (ev):

    -0.9359  -0.8926  -0.8447  -0.8447  -0.8283  -0.8283  -0.4868  -0.4868
    -0.4351  -0.4351   1.8318   2.4815  13.2071  15.0404  19.5189  19.5189
    19.8874

          k = 0.0000 0.0000 0.3129 (  1642 PWs)   bands (ev):

    -0.9137  -0.9137  -0.8378  -0.8378  -0.8378  -0.8378  -0.4594  -0.4594
    -0.4594  -0.4594   2.1387   2.1387  14.1109  14.1109  19.7009  19.7009
    19.7009

     Writing output data file pwscf.save

     init_run     :      0.73s CPU      0.61s WALL (       1 calls)
     electrons    :    107.12s CPU     48.94s WALL (       1 calls)

     Called by init_run:
     wfcinit      :      0.00s CPU      0.00s WALL (       1 calls)
     wfcinit:atom :      0.23s CPU      0.06s WALL (      50 calls)
     wfcinit:wfcr :      6.53s CPU      2.99s WALL (      50 calls)
     potinit      :      0.05s CPU      0.05s WALL (       1 calls)

     Called by electrons:
     c_bands      :    107.12s CPU     48.93s WALL (       1 calls)
     v_of_rho     :      0.05s CPU      0.04s WALL (       1 calls)
     v_h          :      0.00s CPU      0.00s WALL (       1 calls)
     v_xc         :      0.05s CPU      0.04s WALL (       1 calls)
     newd         :      0.06s CPU      0.11s WALL (       1 calls)

     Called by c_bands:
     init_us_2    :      0.22s CPU      0.08s WALL (      50 calls)
     cegterg      :     99.05s CPU     45.16s WALL (      87 calls)

     Called by sum_band:

     Called by *egterg:
     h_psi        :     90.92s CPU     40.86s WALL (    1386 calls)
     s_psi        :      0.83s CPU      0.40s WALL (    1386 calls)
     g_psi        :      0.38s CPU      0.22s WALL (    1249 calls)
     cdiaghg      :      7.11s CPU      3.72s WALL (    1299 calls)
     cegterg:over :      2.56s CPU      1.12s WALL (    1249 calls)
     cegterg:upda :      2.06s CPU      1.02s WALL (    1249 calls)
     cegterg:last :      0.80s CPU      0.31s WALL (     237 calls)

     Called by h_psi:
     h_psi:pot    :     90.56s CPU     40.69s WALL (    1386 calls)
     h_psi:calbec :      1.92s CPU      0.49s WALL (    1386 calls)
     vloc_psi     :     86.84s CPU     39.62s WALL (    1386 calls)
     add_vuspsi   :      1.80s CPU      0.53s WALL (    1386 calls)

     General routines
     calbec       :      1.89s CPU      0.47s WALL (    1386 calls)
     fft          :      0.02s CPU      0.02s WALL (      13 calls)
     ffts         :      0.00s CPU      0.00s WALL (       1 calls)
     fftw         :     81.83s CPU     37.14s WALL (   24606 calls)
     interpolate  :      0.00s CPU      0.00s WALL (       1 calls)
     davcio       :      0.00s CPU      0.01s WALL (      50 calls)

     Parallel routines
     fft_scatter  :      2.75s CPU      1.34s WALL (   24620 calls)

     PWSCF        :  1m48.23s CPU     0m49.97s WALL


   This run was terminated on:   0:37: 4  26Feb2021            

=------------------------------------------------------------------------------=
   JOB DONE.
=------------------------------------------------------------------------------=
