
     Program PWSCF v.6.0 (svn rev. 13079) starts on 25Feb2021 at 12:51:27 

     This program is part of the open-source Quantum ESPRESSO suite
     for quantum simulation of materials; please cite
         "P. Giannozzi et al., J. Phys.:Condens. Matter 21 395502 (2009);
          URL http://www.quantum-espresso.org", 
     in publications or presentations arising from this work. More details at
     http://www.quantum-espresso.org/quote

     Parallel version (MPI), running on     1 processors
     Reading input from espresso.pwi
Warning: card &IONS ignored
Warning: card / ignored
Warning: card &CELL ignored
Warning: card / ignored

     Current dimensions of program PWSCF are:
     Max number of different atomic species (ntypx) = 10
     Max number of k-points (npk) =  40000
     Max angular momentum in pseudopotentials (lmaxx) =  3
     Message from routine input:
     WARNING: "startingwfc" set to atomic+random may spoil restart

     Atomic positions and unit cell read from directory:
     ./pwscf.save/


     IMPORTANT: XC functional enforced from input :
     Exchange-correlation      = PBE ( 1  4  3  4 0 0)
     Any further DFT definition will be discarded
     Please, verify this is what you really want


     Subspace diagonalization in iterative solution of the eigenvalue problem:
     a serial algorithm will be used


     G-vector sticks info
     --------------------
     sticks:   dense  smooth     PW     G-vecs:    dense   smooth      PW
     Sum         433     349    109                11415     8147    1411



     bravais-lattice index     =            0
     lattice parameter (alat)  =       5.5766  a.u.
     unit-cell volume          =     238.4888 (a.u.)^3
     number of atoms/cell      =            2
     number of atomic types    =            1
     number of electrons       =        24.00
     number of Kohn-Sham states=           16
     kinetic-energy cutoff     =      40.0000  Ry
     charge density cutoff     =     200.0000  Ry
     Exchange-correlation      = PBE ( 1  4  3  4 0 0)

     celldm(1)=   5.576582  celldm(2)=   0.000000  celldm(3)=   0.000000
     celldm(4)=   0.000000  celldm(5)=   0.000000  celldm(6)=   0.000000

     crystal axes: (cart. coord. in units of alat)
               a(1) = (   1.000000   0.000000   0.000000 )  
               a(2) = (  -0.500000   0.866025   0.000000 )  
               a(3) = (   0.000000   0.000000   1.587936 )  

     reciprocal axes: (cart. coord. in units 2 pi/alat)
               b(1) = (  1.000000  0.577350 -0.000000 )  
               b(2) = (  0.000000  1.154701  0.000000 )  
               b(3) = (  0.000000 -0.000000  0.629748 )  


     PseudoPot. # 1 for Ti read from file:
     /home/inukai/tango/tests/1element/qe_fit_v2_Ti/../pseudo/ti_pbe_v1.4.uspp.F.UPF
     MD5 check sum: 88a00a6731bd790ddea75d31a80cb452
     Pseudo is Ultrasoft + core correction, Zval = 12.0
     Generated by new atomic code, or converted to UPF format
     Using radial grid of  851 points,  6 beta functions with: 
                l(1) =   0
                l(2) =   0
                l(3) =   1
                l(4) =   1
                l(5) =   2
                l(6) =   2
     Q(r) pseudized with  6 coefficients,  rinner =    1.000   1.000   1.000
                                                       1.000   1.000

     atomic species   valence    mass     pseudopotential
        Ti            12.00    47.86700     Ti( 1.00)

     12 Sym. Ops. (no inversion) found
          (note: 12 additional sym.ops. were found but ignored
           their fractional translations are incommensurate with FFT grid)

                                    s                        frac. trans.

      isym =  1     identity                                     

 cryst.   s( 1) = (     1          0          0      )
                  (     0          1          0      )
                  (     0          0          1      )

 cart.    s( 1) = (  1.0000000  0.0000000  0.0000000 )
                  (  0.0000000  1.0000000  0.0000000 )
                  (  0.0000000  0.0000000  1.0000000 )


      isym =  2     180 deg rotation - cart. axis [0,1,0]        

 cryst.   s( 2) = (    -1          0          0      )
                  (     1          1          0      )
                  (     0          0         -1      )

 cart.    s( 2) = ( -1.0000000  0.0000000  0.0000000 )
                  (  0.0000000  1.0000000  0.0000000 )
                  (  0.0000000  0.0000000 -1.0000000 )


      isym =  3     120 deg rotation - cryst. axis [0,0,1]       

 cryst.   s( 3) = (     0          1          0      )
                  (    -1         -1          0      )
                  (     0          0          1      )

 cart.    s( 3) = ( -0.5000000 -0.8660254  0.0000000 )
                  (  0.8660254 -0.5000000  0.0000000 )
                  (  0.0000000  0.0000000  1.0000000 )


      isym =  4     120 deg rotation - cryst. axis [0,0,-1]      

 cryst.   s( 4) = (    -1         -1          0      )
                  (     1          0          0      )
                  (     0          0          1      )

 cart.    s( 4) = ( -0.5000000  0.8660254  0.0000000 )
                  ( -0.8660254 -0.5000000  0.0000000 )
                  (  0.0000000  0.0000000  1.0000000 )


      isym =  5     180 deg rotation - cryst. axis [1,-1,0]      

 cryst.   s( 5) = (     0         -1          0      )
                  (    -1          0          0      )
                  (     0          0         -1      )

 cart.    s( 5) = (  0.5000000 -0.8660254  0.0000000 )
                  ( -0.8660254 -0.5000000  0.0000000 )
                  (  0.0000000  0.0000000 -1.0000000 )


      isym =  6     180 deg rotation - cryst. axis [2,1,0]       

 cryst.   s( 6) = (     1          1          0      )
                  (     0         -1          0      )
                  (     0          0         -1      )

 cart.    s( 6) = (  0.5000000  0.8660254  0.0000000 )
                  (  0.8660254 -0.5000000  0.0000000 )
                  (  0.0000000  0.0000000 -1.0000000 )


      isym =  7     inv. 180 deg rotation - cart. axis [0,0,1]   

 cryst.   s( 7) = (     1          0          0      )
                  (     0          1          0      )
                  (     0          0         -1      )

 cart.    s( 7) = (  1.0000000  0.0000000  0.0000000 )
                  (  0.0000000  1.0000000  0.0000000 )
                  (  0.0000000  0.0000000 -1.0000000 )


      isym =  8     inv. 180 deg rotation - cart. axis [1,0,0]   

 cryst.   s( 8) = (    -1          0          0      )
                  (     1          1          0      )
                  (     0          0          1      )

 cart.    s( 8) = ( -1.0000000  0.0000000  0.0000000 )
                  (  0.0000000  1.0000000  0.0000000 )
                  (  0.0000000  0.0000000  1.0000000 )


      isym =  9     inv.  60 deg rotation - cryst. axis [0,0,1]  

 cryst.   s( 9) = (    -1         -1          0      )
                  (     1          0          0      )
                  (     0          0         -1      )

 cart.    s( 9) = ( -0.5000000  0.8660254  0.0000000 )
                  ( -0.8660254 -0.5000000  0.0000000 )
                  (  0.0000000  0.0000000 -1.0000000 )


      isym = 10     inv.  60 deg rotation - cryst. axis [0,0,-1] 

 cryst.   s(10) = (     0          1          0      )
                  (    -1         -1          0      )
                  (     0          0         -1      )

 cart.    s(10) = ( -0.5000000 -0.8660254  0.0000000 )
                  (  0.8660254 -0.5000000  0.0000000 )
                  (  0.0000000  0.0000000 -1.0000000 )


      isym = 11     inv. 180 deg rotation - cryst. axis [0,1,0]  

 cryst.   s(11) = (     1          1          0      )
                  (     0         -1          0      )
                  (     0          0          1      )

 cart.    s(11) = (  0.5000000  0.8660254  0.0000000 )
                  (  0.8660254 -0.5000000  0.0000000 )
                  (  0.0000000  0.0000000  1.0000000 )


      isym = 12     inv. 180 deg rotation - cryst. axis [1,1,0]  

 cryst.   s(12) = (     0         -1          0      )
                  (    -1          0          0      )
                  (     0          0          1      )

 cart.    s(12) = (  0.5000000 -0.8660254  0.0000000 )
                  ( -0.8660254 -0.5000000  0.0000000 )
                  (  0.0000000  0.0000000  1.0000000 )


   Cartesian axes

     site n.     atom                  positions (alat units)
         1           Ti  tau(   1) = (   0.0000000   0.0000000   0.0000000  )
         2           Ti  tau(   2) = (   0.0000000   0.5773503   0.7939681  )

   Crystallographic axes

     site n.     atom                  positions (cryst. coord.)
         1           Ti  tau(   1) = (  0.0000000  0.0000000  0.0000000  )
         2           Ti  tau(   2) = (  0.3333333  0.6666667  0.5000000  )

     number of k points=    50  gaussian smearing, width (Ry)=  0.0010
                       cart. coord. in units 2pi/alat
        k(    1) = (   0.0000000   0.0000000   0.0000000), wk =   0.0400000
        k(    2) = (   0.0357143   0.0206197   0.0000000), wk =   0.0400000
        k(    3) = (   0.0714286   0.0412393   0.0000000), wk =   0.0400000
        k(    4) = (   0.1071429   0.0618590   0.0000000), wk =   0.0400000
        k(    5) = (   0.1428571   0.0824786   0.0000000), wk =   0.0400000
        k(    6) = (   0.1785714   0.1030983   0.0000000), wk =   0.0400000
        k(    7) = (   0.2142857   0.1237179   0.0000000), wk =   0.0400000
        k(    8) = (   0.2500000   0.1443376   0.0000000), wk =   0.0400000
        k(    9) = (   0.2857143   0.1649572   0.0000000), wk =   0.0400000
        k(   10) = (   0.3214286   0.1855769   0.0000000), wk =   0.0400000
        k(   11) = (   0.3571429   0.2061965   0.0000000), wk =   0.0400000
        k(   12) = (   0.3928571   0.2268162   0.0000000), wk =   0.0400000
        k(   13) = (   0.4285714   0.2474358   0.0000000), wk =   0.0400000
        k(   14) = (   0.4642857   0.2680555   0.0000000), wk =   0.0400000
        k(   15) = (   0.5000000   0.2886751   0.0000000), wk =   0.0400000
        k(   16) = (   0.4791667   0.3247595   0.0000000), wk =   0.0400000
        k(   17) = (   0.4583333   0.3608439   0.0000000), wk =   0.0400000
        k(   18) = (   0.4375000   0.3969283   0.0000000), wk =   0.0400000
        k(   19) = (   0.4166667   0.4330127   0.0000000), wk =   0.0400000
        k(   20) = (   0.3958333   0.4690971   0.0000000), wk =   0.0400000
        k(   21) = (   0.3750000   0.5051815   0.0000000), wk =   0.0400000
        k(   22) = (   0.3541667   0.5412659   0.0000000), wk =   0.0400000
        k(   23) = (   0.3333333   0.5773503   0.0000000), wk =   0.0400000
        k(   24) = (   0.3148148   0.5452753   0.0000000), wk =   0.0400000
        k(   25) = (   0.2962963   0.5132002   0.0000000), wk =   0.0400000
        k(   26) = (   0.2777778   0.4811252   0.0000000), wk =   0.0400000
        k(   27) = (   0.2592593   0.4490502   0.0000000), wk =   0.0400000
        k(   28) = (   0.2407407   0.4169752   0.0000000), wk =   0.0400000
        k(   29) = (   0.2222222   0.3849002   0.0000000), wk =   0.0400000
        k(   30) = (   0.2037037   0.3528252   0.0000000), wk =   0.0400000
        k(   31) = (   0.1851852   0.3207501   0.0000000), wk =   0.0400000
        k(   32) = (   0.1666667   0.2886751   0.0000000), wk =   0.0400000
        k(   33) = (   0.1481481   0.2566001   0.0000000), wk =   0.0400000
        k(   34) = (   0.1296296   0.2245251   0.0000000), wk =   0.0400000
        k(   35) = (   0.1111111   0.1924501   0.0000000), wk =   0.0400000
        k(   36) = (   0.0925926   0.1603751   0.0000000), wk =   0.0400000
        k(   37) = (   0.0740741   0.1283001   0.0000000), wk =   0.0400000
        k(   38) = (   0.0555556   0.0962250   0.0000000), wk =   0.0400000
        k(   39) = (   0.0370370   0.0641500   0.0000000), wk =   0.0400000
        k(   40) = (   0.0185185   0.0320750   0.0000000), wk =   0.0400000
        k(   41) = (   0.0000000   0.0000000   0.0000000), wk =   0.0400000
        k(   42) = (   0.0000000   0.0000000   0.0349860), wk =   0.0400000
        k(   43) = (   0.0000000   0.0000000   0.0699720), wk =   0.0400000
        k(   44) = (   0.0000000   0.0000000   0.1049580), wk =   0.0400000
        k(   45) = (   0.0000000   0.0000000   0.1399440), wk =   0.0400000
        k(   46) = (   0.0000000   0.0000000   0.1749301), wk =   0.0400000
        k(   47) = (   0.0000000   0.0000000   0.2099161), wk =   0.0400000
        k(   48) = (   0.0000000   0.0000000   0.2449021), wk =   0.0400000
        k(   49) = (   0.0000000   0.0000000   0.2798881), wk =   0.0400000
        k(   50) = (   0.0000000   0.0000000   0.3148741), wk =   0.0400000

                       cryst. coord.
        k(    1) = (   0.0000000   0.0000000   0.0000000), wk =   0.0400000
        k(    2) = (   0.0357143   0.0000000   0.0000000), wk =   0.0400000
        k(    3) = (   0.0714286   0.0000000   0.0000000), wk =   0.0400000
        k(    4) = (   0.1071429   0.0000000   0.0000000), wk =   0.0400000
        k(    5) = (   0.1428571   0.0000000   0.0000000), wk =   0.0400000
        k(    6) = (   0.1785714   0.0000000   0.0000000), wk =   0.0400000
        k(    7) = (   0.2142857   0.0000000   0.0000000), wk =   0.0400000
        k(    8) = (   0.2500000   0.0000000   0.0000000), wk =   0.0400000
        k(    9) = (   0.2857143   0.0000000   0.0000000), wk =   0.0400000
        k(   10) = (   0.3214286   0.0000000   0.0000000), wk =   0.0400000
        k(   11) = (   0.3571429   0.0000000   0.0000000), wk =   0.0400000
        k(   12) = (   0.3928571   0.0000000   0.0000000), wk =   0.0400000
        k(   13) = (   0.4285714   0.0000000   0.0000000), wk =   0.0400000
        k(   14) = (   0.4642857   0.0000000   0.0000000), wk =   0.0400000
        k(   15) = (   0.5000000   0.0000000   0.0000000), wk =   0.0400000
        k(   16) = (   0.4791667   0.0416667   0.0000000), wk =   0.0400000
        k(   17) = (   0.4583333   0.0833333   0.0000000), wk =   0.0400000
        k(   18) = (   0.4375000   0.1250000   0.0000000), wk =   0.0400000
        k(   19) = (   0.4166667   0.1666667   0.0000000), wk =   0.0400000
        k(   20) = (   0.3958333   0.2083333   0.0000000), wk =   0.0400000
        k(   21) = (   0.3750000   0.2500000   0.0000000), wk =   0.0400000
        k(   22) = (   0.3541667   0.2916667   0.0000000), wk =   0.0400000
        k(   23) = (   0.3333333   0.3333333   0.0000000), wk =   0.0400000
        k(   24) = (   0.3148148   0.3148148   0.0000000), wk =   0.0400000
        k(   25) = (   0.2962963   0.2962963   0.0000000), wk =   0.0400000
        k(   26) = (   0.2777778   0.2777778   0.0000000), wk =   0.0400000
        k(   27) = (   0.2592593   0.2592593   0.0000000), wk =   0.0400000
        k(   28) = (   0.2407407   0.2407407   0.0000000), wk =   0.0400000
        k(   29) = (   0.2222222   0.2222222   0.0000000), wk =   0.0400000
        k(   30) = (   0.2037037   0.2037037   0.0000000), wk =   0.0400000
        k(   31) = (   0.1851852   0.1851852   0.0000000), wk =   0.0400000
        k(   32) = (   0.1666667   0.1666667   0.0000000), wk =   0.0400000
        k(   33) = (   0.1481481   0.1481481   0.0000000), wk =   0.0400000
        k(   34) = (   0.1296296   0.1296296   0.0000000), wk =   0.0400000
        k(   35) = (   0.1111111   0.1111111   0.0000000), wk =   0.0400000
        k(   36) = (   0.0925926   0.0925926   0.0000000), wk =   0.0400000
        k(   37) = (   0.0740741   0.0740741   0.0000000), wk =   0.0400000
        k(   38) = (   0.0555556   0.0555556   0.0000000), wk =   0.0400000
        k(   39) = (   0.0370370   0.0370370   0.0000000), wk =   0.0400000
        k(   40) = (   0.0185185   0.0185185   0.0000000), wk =   0.0400000
        k(   41) = (   0.0000000   0.0000000   0.0000000), wk =   0.0400000
        k(   42) = (   0.0000000   0.0000000   0.0555556), wk =   0.0400000
        k(   43) = (   0.0000000   0.0000000   0.1111111), wk =   0.0400000
        k(   44) = (   0.0000000   0.0000000   0.1666667), wk =   0.0400000
        k(   45) = (   0.0000000   0.0000000   0.2222222), wk =   0.0400000
        k(   46) = (   0.0000000   0.0000000   0.2777778), wk =   0.0400000
        k(   47) = (   0.0000000   0.0000000   0.3333333), wk =   0.0400000
        k(   48) = (   0.0000000   0.0000000   0.3888889), wk =   0.0400000
        k(   49) = (   0.0000000   0.0000000   0.4444444), wk =   0.0400000
        k(   50) = (   0.0000000   0.0000000   0.5000000), wk =   0.0400000

     Dense  grid:    11415 G-vectors     FFT dimensions: (  25,  25,  40)

     Smooth grid:     8147 G-vectors     FFT dimensions: (  24,  24,  36)

     Estimated max dynamical RAM per process >      18.48Mb

     Check: negative/imaginary core charge=   -0.000008    0.000000

     The potential is recalculated from file :
     ./pwscf.save/charge-density.dat


     negative rho (up, down):  2.320E-03 0.000E+00
     Starting wfc are   20 randomized atomic wfcs

     Band Structure Calculation
     Davidson diagonalization with overlap

     Computing kpt #:     1
     total cpu time spent up to now is        1.0 secs

     Computing kpt #:     2
     total cpu time spent up to now is        1.4 secs

     Computing kpt #:     3
     total cpu time spent up to now is        1.8 secs

     Computing kpt #:     4
     total cpu time spent up to now is        2.2 secs

     Computing kpt #:     5
     total cpu time spent up to now is        2.7 secs

     Computing kpt #:     6
     total cpu time spent up to now is        3.1 secs

     Computing kpt #:     7
     total cpu time spent up to now is        3.6 secs

     Computing kpt #:     8
     total cpu time spent up to now is        4.0 secs

     Computing kpt #:     9
     total cpu time spent up to now is        4.4 secs

     Computing kpt #:    10
     total cpu time spent up to now is        4.9 secs

     Computing kpt #:    11
     total cpu time spent up to now is        5.3 secs

     Computing kpt #:    12
     total cpu time spent up to now is        5.7 secs

     Computing kpt #:    13
     total cpu time spent up to now is        6.0 secs

     Computing kpt #:    14
     total cpu time spent up to now is        6.5 secs

     Computing kpt #:    15
     total cpu time spent up to now is        6.9 secs

     Computing kpt #:    16
     total cpu time spent up to now is        7.3 secs

     Computing kpt #:    17
     total cpu time spent up to now is        7.7 secs

     Computing kpt #:    18
     total cpu time spent up to now is        8.1 secs

     Computing kpt #:    19
     total cpu time spent up to now is        8.5 secs

     Computing kpt #:    20
     total cpu time spent up to now is        8.9 secs

     Computing kpt #:    21
     total cpu time spent up to now is        9.3 secs

     Computing kpt #:    22
     total cpu time spent up to now is        9.7 secs

     Computing kpt #:    23
     total cpu time spent up to now is       10.1 secs

     Computing kpt #:    24
     total cpu time spent up to now is       10.5 secs

     Computing kpt #:    25
     total cpu time spent up to now is       10.9 secs

     Computing kpt #:    26
     total cpu time spent up to now is       11.3 secs

     Computing kpt #:    27
     total cpu time spent up to now is       11.7 secs

     Computing kpt #:    28
     total cpu time spent up to now is       12.0 secs

     Computing kpt #:    29
     total cpu time spent up to now is       12.4 secs

     Computing kpt #:    30
     total cpu time spent up to now is       12.8 secs

     Computing kpt #:    31
     total cpu time spent up to now is       13.2 secs

     Computing kpt #:    32
     total cpu time spent up to now is       13.6 secs

     Computing kpt #:    33
     total cpu time spent up to now is       14.0 secs

     Computing kpt #:    34
     total cpu time spent up to now is       14.5 secs

     Computing kpt #:    35
     total cpu time spent up to now is       15.1 secs

     Computing kpt #:    36
     total cpu time spent up to now is       15.5 secs

     Computing kpt #:    37
     total cpu time spent up to now is       15.9 secs

     Computing kpt #:    38
     total cpu time spent up to now is       16.3 secs

     Computing kpt #:    39
     total cpu time spent up to now is       16.7 secs

     Computing kpt #:    40
     total cpu time spent up to now is       17.1 secs

     Computing kpt #:    41
     total cpu time spent up to now is       17.5 secs

     Computing kpt #:    42
     total cpu time spent up to now is       17.9 secs

     Computing kpt #:    43
     total cpu time spent up to now is       18.2 secs

     Computing kpt #:    44
     total cpu time spent up to now is       18.6 secs

     Computing kpt #:    45
     total cpu time spent up to now is       19.0 secs

     Computing kpt #:    46
     total cpu time spent up to now is       19.3 secs

     Computing kpt #:    47
     total cpu time spent up to now is       19.6 secs

     Computing kpt #:    48
     total cpu time spent up to now is       20.0 secs

     Computing kpt #:    49
     total cpu time spent up to now is       20.3 secs

     Computing kpt #:    50
     total cpu time spent up to now is       20.6 secs

     ethr =  4.17E-10,  avg # of iterations = 15.8

     total cpu time spent up to now is       20.6 secs

     End of band structure calculation

          k = 0.0000 0.0000 0.0000 (  1013 PWs)   bands (ev):

   -43.7191 -43.5917 -20.2968 -19.6879 -19.6879 -19.6273 -19.5930 -19.5930
     6.9839  10.4909  13.8285  13.9069  13.9069  13.9994  14.3902  14.3902

          k = 0.0357 0.0206 0.0000 (  1033 PWs)   bands (ev):

   -43.7179 -43.5912 -20.2941 -19.6934 -19.6897 -19.6284 -19.5989 -19.5938
     7.0194  10.5193  13.7577  13.8031  13.9318  14.0885  14.3714  14.4124

          k = 0.0714 0.0412 0.0000 (  1033 PWs)   bands (ev):

   -43.7144 -43.5898 -20.2862 -19.7098 -19.6952 -19.6318 -19.6159 -19.5960
     7.1252  10.6028  13.5690  13.6445  14.0061  14.2013  14.3225  14.4786

          k = 0.1071 0.0619 0.0000 (  1033 PWs)   bands (ev):

   -43.7086 -43.5876 -20.2732 -19.7363 -19.7039 -19.6433 -19.6374 -19.5996
     7.2990  10.7353  13.3114  13.4630  14.1281  14.2084  14.3572  14.5757

          k = 0.1429 0.0825 0.0000 (  1034 PWs)   bands (ev):

   -43.7009 -43.5846 -20.2554 -19.7716 -19.7152 -19.6791 -19.6453 -19.6046
     7.5365  10.9058  13.0266  13.2663  14.1073  14.2950  14.4746  14.4841

          k = 0.1786 0.1031 0.0000 (  1030 PWs)   bands (ev):

   -43.6915 -43.5813 -20.2334 -19.8140 -19.7286 -19.7215 -19.6554 -19.6108
     7.8320  11.0965  12.7399  13.0669  13.9960  14.3542  14.3845  14.5026

          k = 0.2143 0.1237 0.0000 (  1030 PWs)   bands (ev):

   -43.6807 -43.5778 -20.2078 -19.8616 -19.7680 -19.7432 -19.6678 -19.6179
     8.1774  11.2804  12.4659  12.8814  13.8982  14.2296  14.2801  14.7453

          k = 0.2500 0.1443 0.0000 (  1026 PWs)   bands (ev):

   -43.6691 -43.5743 -20.1792 -19.9119 -19.8161 -19.7583 -19.6824 -19.6257
     8.5624  11.4212  12.2130  12.7288  13.8371  14.1070  14.1751  15.0154

          k = 0.2857 0.1650 0.0000 (  1014 PWs)   bands (ev):

   -43.6571 -43.5713 -20.1486 -19.9623 -19.8635 -19.7731 -19.6991 -19.6336
     8.9735  11.4853  11.9867  12.6225  13.8333  13.9916  14.0739  15.3023

          k = 0.3214 0.1856 0.0000 (  1016 PWs)   bands (ev):

   -43.6452 -43.5688 -20.1170 -20.0104 -19.9078 -19.7871 -19.7174 -19.6413
     9.3933  11.4675  11.7904  12.5576  13.8875  13.8924  13.9806  15.5923

          k = 0.3571 0.2062 0.0000 (  1014 PWs)   bands (ev):

   -43.6340 -43.5672 -20.0856 -20.0535 -19.9470 -19.7994 -19.7368 -19.6482
     9.8004  11.3944  11.6268  12.5180  13.7981  13.8991  13.9950  15.8665

          k = 0.3929 0.2268 0.0000 (  1020 PWs)   bands (ev):

   -43.6240 -43.5665 -20.0896 -20.0562 -19.9795 -19.8097 -19.7563 -19.6541
    10.1704  11.2972  11.4977  12.4957  13.7259  13.8324  14.1078  16.1024

          k = 0.4286 0.2474 0.0000 (  1022 PWs)   bands (ev):

   -43.6159 -43.5665 -20.1167 -20.0310 -20.0037 -19.8173 -19.7740 -19.6586
    10.4795  11.1940  11.4046  12.4894  13.6730  13.7831  14.2019  16.2801

          k = 0.4643 0.2681 0.0000 (  1008 PWs)   bands (ev):

   -43.6104 -43.5669 -20.1335 -20.0187 -20.0134 -19.8220 -19.7869 -19.6614
    10.7100  11.0917  11.3484  12.4936  13.6407  13.7528  14.2617  16.3894

          k = 0.5000 0.2887 0.0000 (  1012 PWs)   bands (ev):

   -43.6085 -43.5671 -20.1392 -20.0238 -20.0069 -19.8236 -19.7918 -19.6623
    10.8193  11.0256  11.3295  12.4971  13.6298  13.7426  14.2819  16.4262

          k = 0.4792 0.3248 0.0000 (  1010 PWs)   bands (ev):

   -43.6079 -43.5671 -20.1369 -20.0217 -20.0048 -19.8278 -19.7934 -19.6674
    10.8463  11.0521  11.3364  12.4762  13.6142  13.7346  14.2883  16.4305

          k = 0.4583 0.3608 0.0000 (  1014 PWs)   bands (ev):

   -43.6060 -43.5674 -20.1302 -20.0154 -19.9986 -19.8401 -19.7980 -19.6822
    10.9244  11.1289  11.3562  12.4167  13.5701  13.7110  14.3077  16.4385

          k = 0.4375 0.3969 0.0000 (  1008 PWs)   bands (ev):

   -43.6030 -43.5678 -20.1194 -20.0054 -19.9885 -19.8591 -19.8058 -19.7056
    11.0458  11.2483  11.3858  12.3269  13.5060  13.6723  14.3411  16.3427

          k = 0.4167 0.4330 0.0000 (  1004 PWs)   bands (ev):

   -43.5991 -43.5687 -20.1051 -19.9921 -19.9747 -19.8829 -19.8167 -19.7354
    11.1973  11.3968  11.4206  12.2178  13.4347  13.6203  14.3893  16.2043

          k = 0.3958 0.4691 0.0000 (  1002 PWs)   bands (ev):

   -43.5944 -43.5700 -20.0884 -19.9767 -19.9576 -19.9088 -19.8307 -19.7689
    11.3616  11.4544  11.5551  12.1008  13.3715  13.5580  14.4513  16.0983

          k = 0.3750 0.5052 0.0000 (  1014 PWs)   bands (ev):

   -43.5894 -43.5721 -20.0714 -19.9611 -19.9377 -19.9326 -19.8479 -19.8020
    11.4808  11.5203  11.6988  11.9860  13.3315  13.4900  14.5202  16.0441

          k = 0.3542 0.5413 0.0000 (  1012 PWs)   bands (ev):

   -43.5843 -43.5752 -20.0580 -19.9498 -19.9486 -19.9154 -19.8682 -19.8281
    11.4957  11.6576  11.7966  11.8844  13.3264  13.4223  14.5784  16.0563

          k = 0.3333 0.5774 0.0000 (  1008 PWs)   bands (ev):

   -43.5793 -43.5793 -20.0532 -19.9499 -19.9498 -19.8914 -19.8914 -19.8383
    11.4997  11.7653  11.7654  11.8571  13.3614  13.3615  14.6023  16.1374

          k = 0.3148 0.5453 0.0000 (  1010 PWs)   bands (ev):

   -43.5840 -43.5753 -20.0555 -19.9603 -19.9380 -19.9145 -19.8691 -19.8314
    11.4986  11.6683  11.8358  11.8424  13.3186  13.4250  14.5814  16.0330

          k = 0.2963 0.5132 0.0000 (  1010 PWs)   bands (ev):

   -43.5898 -43.5719 -20.0582 -19.9741 -19.9395 -19.9187 -19.8462 -19.8151
    11.4998  11.5217  11.8168  11.8861  13.2904  13.5136  14.5203  15.9171

          k = 0.2778 0.4811 0.0000 (  1012 PWs)   bands (ev):

   -43.5967 -43.5692 -20.0570 -19.9854 -19.9664 -19.8958 -19.8232 -19.7946
    11.2994  11.5103  11.8114  11.9201  13.2804  13.6205  14.4257  15.7917

          k = 0.2593 0.4491 0.0000 (  1004 PWs)   bands (ev):

   -43.6046 -43.5673 -20.0496 -19.9948 -19.9913 -19.8714 -19.8004 -19.7722
    11.0044  11.5364  11.8366  11.9404  13.2911  13.7387  14.3078  15.6592

          k = 0.2407 0.4170 0.0000 (  1010 PWs)   bands (ev):

   -43.6135 -43.5663 -20.0349 -20.0243 -19.9904 -19.8468 -19.7783 -19.7495
    10.6534  11.5832  11.8927  11.9464  13.3241  13.8617  14.1787  15.5218

          k = 0.2222 0.3849 0.0000 (  1016 PWs)   bands (ev):

   -43.6232 -43.5663 -20.0545 -20.0126 -19.9822 -19.8225 -19.7570 -19.7271
    10.2655  11.6544  11.9336  11.9783  13.3802  13.9838  14.0527  15.3819

          k = 0.2037 0.3528 0.0000 (  1024 PWs)   bands (ev):

   -43.6337 -43.5671 -20.0851 -19.9832 -19.9668 -19.7993 -19.7369 -19.7057
     9.8579  11.7524  11.8941  12.0915  13.4590  13.9453  14.1006  15.2418

          k = 0.1852 0.3208 0.0000 (  1023 PWs)   bands (ev):

   -43.6446 -43.5686 -20.1154 -19.9476 -19.9449 -19.7772 -19.7182 -19.6856
     9.4453  11.8198  11.8784  12.2298  13.5595  13.8714  14.2088  15.1034

          k = 0.1667 0.2887 0.0000 (  1021 PWs)   bands (ev):

   -43.6557 -43.5709 -20.1449 -19.9176 -19.9072 -19.7565 -19.7011 -19.6672
     9.0402  11.7059  12.0325  12.3899  13.6793  13.8407  14.3061  14.9689

          k = 0.1481 0.2566 0.0000 (  1025 PWs)   bands (ev):

   -43.6667 -43.5736 -20.1732 -19.8860 -19.8638 -19.7372 -19.6856 -19.6506
     8.6526  11.5557  12.2139  12.5677  13.8153  13.8544  14.3914  14.8397

          k = 0.1296 0.2245 0.0000 (  1029 PWs)   bands (ev):

   -43.6774 -43.5767 -20.1996 -19.8520 -19.8198 -19.7189 -19.6719 -19.6360
     8.2913  11.3793  12.4206  12.7579  13.9058  13.9633  14.4646  14.7170

          k = 0.1111 0.1925 0.0000 (  1033 PWs)   bands (ev):

   -43.6874 -43.5799 -20.2238 -19.8171 -19.7782 -19.7007 -19.6600 -19.6235
     7.9636  11.1908  12.6493  12.9546  13.9839  14.1180  14.5264  14.6013

          k = 0.0926 0.1604 0.0000 (  1039 PWs)   bands (ev):

   -43.6964 -43.5830 -20.2451 -19.7833 -19.7431 -19.6806 -19.6500 -19.6132
     7.6756  11.0048  12.8946  13.1514  14.0758  14.2730  14.4128  14.4922

          k = 0.0741 0.1283 0.0000 (  1041 PWs)   bands (ev):

   -43.7042 -43.5859 -20.2632 -19.7522 -19.7183 -19.6568 -19.6418 -19.6052
     7.4325  10.8343  13.1482  13.3414  14.1638  14.2401  14.3876  14.4206

          k = 0.0556 0.0962 0.0000 (  1041 PWs)   bands (ev):

   -43.7106 -43.5883 -20.2777 -19.7257 -19.7032 -19.6354 -19.6321 -19.5994
     7.2389  10.6904  13.3959  13.5187  14.0866  14.2631  14.2847  14.5519

          k = 0.0370 0.0642 0.0000 (  1041 PWs)   bands (ev):

   -43.7153 -43.5902 -20.2882 -19.7053 -19.6942 -19.6309 -19.6113 -19.5956
     7.0981  10.5816  13.6149  13.6786  13.9873  14.1810  14.3307  14.4630

          k = 0.0185 0.0321 0.0000 (  1033 PWs)   bands (ev):

   -43.7181 -43.5913 -20.2947 -19.6923 -19.6894 -19.6282 -19.5977 -19.5937
     7.0126  10.5138  13.7711  13.8177  13.9270  14.0768  14.3749  14.4082

          k = 0.0000 0.0000 0.0000 (  1013 PWs)   bands (ev):

   -43.7191 -43.5917 -20.2968 -19.6879 -19.6879 -19.6273 -19.5930 -19.5930
     6.9839  10.4909  13.8285  13.9069  13.9069  13.9994  14.3902  14.3902

          k = 0.0000 0.0000 0.0350 (  1043 PWs)   bands (ev):

   -43.7182 -43.5927 -20.2919 -19.6871 -19.6871 -19.6326 -19.5938 -19.5938
     7.0096  10.4774  13.7823  13.8930  13.8930  13.9851  14.3760  14.3760

          k = 0.0000 0.0000 0.0700 (  1038 PWs)   bands (ev):

   -43.7153 -43.5956 -20.2774 -19.6850 -19.6850 -19.6483 -19.5959 -19.5959
     7.0863  10.4337  13.6578  13.8584  13.8584  13.9430  14.3352  14.3352

          k = 0.0000 0.0000 0.1050 (  1032 PWs)   bands (ev):

   -43.7107 -43.6003 -20.2536 -19.6815 -19.6815 -19.6739 -19.5994 -19.5994
     7.2127  10.3513  13.4901  13.8167  13.8167  13.8750  14.2729  14.2729

          k = 0.0000 0.0000 0.1399 (  1032 PWs)   bands (ev):

   -43.7044 -43.6068 -20.2212 -19.7085 -19.6768 -19.6768 -19.6042 -19.6042
     7.3867  10.2186  13.3219  13.7793  13.7793  13.7847  14.1961  14.1961

          k = 0.0000 0.0000 0.1749 (  1032 PWs)   bands (ev):

   -43.6966 -43.6147 -20.1810 -19.7509 -19.6710 -19.6710 -19.6101 -19.6101
     7.6050  10.0271  13.1895  13.6768  13.7535  13.7535  14.1119  14.1119

          k = 0.0000 0.0000 0.2099 (  1026 PWs)   bands (ev):

   -43.6875 -43.6239 -20.1343 -19.7998 -19.6643 -19.6643 -19.6168 -19.6168
     7.8632   9.7769  13.1136  13.5575  13.7434  13.7434  14.0269  14.0269

          k = 0.0000 0.0000 0.2449 (  1026 PWs)   bands (ev):

   -43.6775 -43.6340 -20.0823 -19.8535 -19.6568 -19.6568 -19.6244 -19.6244
     8.1557   9.4791  13.0981  13.4341  13.7507  13.7507  13.9467  13.9467

          k = 0.0000 0.0000 0.2799 (  1026 PWs)   bands (ev):

   -43.6668 -43.6447 -20.0266 -19.9104 -19.6488 -19.6488 -19.6323 -19.6323
     8.4749   9.1510  13.1350  13.3154  13.7758  13.7758  13.8760  13.8760

          k = 0.0000 0.0000 0.3149 (  1014 PWs)   bands (ev):

   -43.6558 -43.6558 -19.9687 -19.9687 -19.6406 -19.6406 -19.6405 -19.6405
     8.8108   8.8110  13.2118  13.2118  13.8181  13.8181  13.8182  13.8182

     Writing output data file pwscf.save

     init_run     :      0.61s CPU      0.50s WALL (       1 calls)
     electrons    :     35.42s CPU     19.90s WALL (       1 calls)

     Called by init_run:
     wfcinit      :      0.00s CPU      0.00s WALL (       1 calls)
     wfcinit:atom :      0.03s CPU      0.04s WALL (      50 calls)
     wfcinit:wfcr :      3.17s CPU      1.74s WALL (      50 calls)
     potinit      :      0.02s CPU      0.03s WALL (       1 calls)

     Called by electrons:
     c_bands      :     35.42s CPU     19.90s WALL (       1 calls)
     v_of_rho     :      0.02s CPU      0.02s WALL (       1 calls)
     v_h          :      0.00s CPU      0.00s WALL (       1 calls)
     v_xc         :      0.02s CPU      0.02s WALL (       1 calls)
     newd         :      0.00s CPU      0.07s WALL (       1 calls)

     Called by c_bands:
     init_us_2    :      0.12s CPU      0.05s WALL (      50 calls)
     cegterg      :     31.44s CPU     17.67s WALL (      54 calls)

     Called by sum_band:

     Called by *egterg:
     h_psi        :     26.94s CPU     14.77s WALL (     896 calls)
     s_psi        :      0.45s CPU      0.24s WALL (     896 calls)
     g_psi        :      0.27s CPU      0.10s WALL (     792 calls)
     cdiaghg      :      4.05s CPU      2.85s WALL (     842 calls)
     cegterg:over :      1.00s CPU      0.53s WALL (     792 calls)
     cegterg:upda :      1.08s CPU      0.47s WALL (     792 calls)
     cegterg:last :      0.45s CPU      0.18s WALL (     171 calls)

     Called by h_psi:
     h_psi:pot    :     26.92s CPU     14.69s WALL (     896 calls)
     h_psi:calbec :      0.70s CPU      0.30s WALL (     896 calls)
     vloc_psi     :     25.84s CPU     14.09s WALL (     896 calls)
     add_vuspsi   :      0.38s CPU      0.27s WALL (     896 calls)

     General routines
     calbec       :      0.70s CPU      0.29s WALL (     896 calls)
     fft          :      0.00s CPU      0.01s WALL (      13 calls)
     ffts         :      0.00s CPU      0.01s WALL (       1 calls)
     fftw         :     23.73s CPU     12.95s WALL (   18058 calls)
     interpolate  :      0.00s CPU      0.01s WALL (       1 calls)
     davcio       :      0.00s CPU      0.01s WALL (      50 calls)

     Parallel routines
     fft_scatter  :      1.27s CPU      0.66s WALL (   18072 calls)

     PWSCF        :    36.52s CPU        20.85s WALL


   This run was terminated on:  12:51:48  25Feb2021            

=------------------------------------------------------------------------------=
   JOB DONE.
=------------------------------------------------------------------------------=
