element =  S
struct =  rhombohedral
nbands =  -4
path =  GPZQGFP1Q1LZ
kpts =  (8,8,8)

  ___ ___ ___ _ _ _  
 |   |   |_  | | | | 
 | | | | | . | | | | 
 |__ |  _|___|_____|  1.3.1b1
 |___|_|             

User:   inukai@DESKTOP-12SE80T
Date:   Sat Feb 13 23:38:23 2021
Arch:   x86_64
Pid:    8111
Python: 3.6.9
gpaw:   /usr/lib/python3/dist-packages/gpaw
_gpaw:  /usr/lib/python3/dist-packages/_gpaw.cpython-36m-x86_64-linux-gnu.so
ase:    /home/inukai/hotcent/ase-3.19.3/ase (version 3.19.3)
numpy:  /home/inukai/.local/lib/python3.6/site-packages/numpy (version 1.19.5)
scipy:  /home/inukai/.local/lib/python3.6/site-packages/scipy (version 1.5.4)
units:  Angstrom and eV
cores:  1

Input parameters:
  kpts: [8 8 8]
  maxiter: 1500
  mixer: {backend: pulay,
          beta: 0.05,
          method: separate,
          nmaxold: 5,
          weight: 50}
  mode: {ecut: 400.0,
         name: pw}
  occupations: {name: fermi-dirac,
                width: 0.02}
  spinpol: True
  xc: PBE

System changes: positions, numbers, cell, pbc, initial_charges, initial_magmoms 

Initialize ...

S-setup:
  name: Sulfur
  id: ca434db9faa07220b7a1d8cb6886b7a9
  Z: 16
  valence: 6
  core: 10
  charge: 0.0
  file: /usr/share/gpaw-setups/S.PBE.gz
  cutoffs: 0.76(comp), 1.77(filt), 1.66(core), lmax=2
  valence states:
                energy  radius
    3s(2.00)   -17.254   0.974
    3p(4.00)    -7.008   0.979
    *s           9.957   0.974
    *p          20.203   0.979
    *d           0.000   0.900

  Using partial waves for S as LCAO basis

Reference energy: -10857.619898

Spin-polarized calculation.
Magnetic moment:  0.000000

Occupation numbers:
  Fermi-Dirac: width=0.0200 eV

Convergence criteria:
  Maximum total energy change: 0.0005 eV / electron
  Maximum integral of absolute density change: 0.0001 electrons
  Maximum integral of absolute eigenstate change: 4e-08 eV^2
  Maximum number of iterations: 1500

Symmetries present (total): 12

  ( 1  0  0)  ( 1  0  0)  ( 0  1  0)  ( 0  1  0)  ( 0  0  1)  ( 0  0  1)
  ( 0  1  0)  ( 0  0  1)  ( 1  0  0)  ( 0  0  1)  ( 1  0  0)  ( 0  1  0)
  ( 0  0  1)  ( 0  1  0)  ( 0  0  1)  ( 1  0  0)  ( 0  1  0)  ( 1  0  0)

  ( 0  0 -1)  ( 0  0 -1)  ( 0 -1  0)  ( 0 -1  0)  (-1  0  0)  (-1  0  0)
  ( 0 -1  0)  (-1  0  0)  ( 0  0 -1)  (-1  0  0)  ( 0  0 -1)  ( 0 -1  0)
  (-1  0  0)  ( 0 -1  0)  (-1  0  0)  ( 0  0 -1)  ( 0 -1  0)  ( 0  0 -1)

512 k-points: 8 x 8 x 8 Monkhorst-Pack grid
60 k-points in the irreducible part of the Brillouin zone
       k-points in crystal coordinates                weights
   0:     0.06250000    0.06250000   -0.06250000          6/512
   1:     0.06250000    0.06250000    0.06250000          2/512
   2:     0.18750000   -0.06250000   -0.06250000          6/512
   3:     0.18750000    0.06250000   -0.18750000         12/512
   4:     0.18750000    0.06250000   -0.06250000         12/512
   5:     0.18750000    0.06250000    0.06250000          6/512
   6:     0.18750000    0.18750000   -0.18750000          6/512
   7:     0.18750000    0.18750000   -0.06250000          6/512
   8:     0.18750000    0.18750000    0.06250000          6/512
   9:     0.18750000    0.18750000    0.18750000          2/512
          ...
  59:     0.43750000    0.43750000    0.43750000          2/512

Wave functions: Plane wave expansion
  Cutoff energy: 400.000 eV
  Number of coefficients (min, max): 301, 319
  Using FFTW library
  Eigensolver: None  MatrixOperator buffer_size: default value or 
                              see value of nblock in input file
Diagonalizer layout: Serial LAPACKOrthonormalizer layout: Serial LAPACK 

Davidson(niter=1, smin=None, normalize=True) 

Densities:
  Coarse grid: 12*12*12 grid
  Fine grid: 24*24*24 grid
  Total Charge: 0.000000 

Density mixing:
  Method: separate
  Backend: pulay
  Linear mixing parameter: 0.05
  Mixing with 5 old densities
  Damping of long wave oscillations: 50 

Hamiltonian:
  XC and Coulomb potentials evaluated on a 24*24*24 grid
  Using the PBE Exchange-Correlation functional
 

Memory estimate:
  Process memory now: 927.46 MiB
  Calculator: 6.18 MiB
    Density: 1.06 MiB
      Arrays: 0.46 MiB
      Localized functions: 0.34 MiB
      Mixer: 0.26 MiB
    Hamiltonian: 0.35 MiB
      Arrays: 0.34 MiB
      XC: 0.00 MiB
      Poisson: 0.00 MiB
      vbar: 0.01 MiB
    Wavefunctions: 4.77 MiB
      Arrays psit_nG: 2.34 MiB
      Eigensolver: 0.05 MiB
      Projections: 0.10 MiB
      Projectors: 2.00 MiB
      Overlap op: 0.02 MiB
      PW-descriptor: 0.28 MiB

Total number of cores used: 1

Number of atoms: 1
Number of atomic orbitals: 4
Number of bands in calculation: 4
Bands to converge: occupied states only
Number of valence electrons: 6

... initialized

Initializing position-dependent things.

Density initialized from atomic densities
Creating initial wave functions:
  4 bands from LCAO basis set

                
                
                
       S        
                
                
                
                

Positions:
   0 S      0.000000    0.000000    0.000000

Unit cell:
           periodic     x           y           z      points  spacing
  1. axis:    yes    2.581529    0.000000    0.000000    12     0.2150
  2. axis:    yes   -0.065568    2.580696    0.000000    12     0.2150
  3. axis:    yes   -0.065568   -0.067255    2.579820    12     0.2150

  Lengths:   2.581529   2.581529   2.581529
  Angles:   91.455414  91.455414  91.455414

Effective grid spacing dv^(1/3) = 0.2151

                     log10-error:    total        iterations:
           time      wfs    density  energy       fermi  poisson  magmom
iter:   1  23:38:26  +0.72   +inf    -3.348002    3               +0.0000
iter:   2  23:38:26  +0.12   +inf    -3.446595    4               +0.0000
iter:   3  23:38:27  -0.84   +inf    -3.462514    3               +0.0000
iter:   4  23:38:28  -1.44  -1.49    -3.466265    2               +0.0000
iter:   5  23:38:29  -1.99  -1.52    -3.470889    4               +0.0000
iter:   6  23:38:30  -2.55  -1.98    -3.471761    4               +0.0000
iter:   7  23:38:32  -3.36  -3.00    -3.471788    2               +0.0000
iter:   8  23:38:33  -3.93  -2.98    -3.471811    3               +0.0000
iter:   9  23:38:34  -4.52  -3.30    -3.471819    3               +0.0000
iter:  10  23:38:35  -5.11  -3.59    -3.471819    2               +0.0000
iter:  11  23:38:36  -5.49  -3.72    -3.471820    2               +0.0000
iter:  12  23:38:37  -6.17  -4.21    -3.471820    2               +0.0000
iter:  13  23:38:38  -6.75  -4.48    -3.471820    2               +0.0000
iter:  14  23:38:39  -7.21  -4.43    -3.471820    2               -0.0000
iter:  15  23:38:40  -7.58  -4.45    -3.471820    2               +0.0000

Converged after 15 iterations.

Dipole moment: (0.000000, 0.000000, -0.000000) |e|*Ang

Total magnetic moment: 0.000000
Local magnetic moments:
   0 S  0.000000

Energy contributions relative to reference atoms: (reference = -10857.619898)

Kinetic:         +1.451199
Potential:       -1.452227
External:        +0.000000
XC:              -3.544200
Entropy (-ST):   -0.000645
Local:           +0.073729
--------------------------
Free energy:     -3.472142
Extrapolated:    -3.471820

Spin contamination: 0.000000 electrons
Fermi level: 7.38820

Warning: Showing only first 2 kpts
                      Up                     Down
 Kpt  Band  Eigenvalues  Occupancy  Eigenvalues  Occupancy
  0     1      8.34027    0.00000      8.34027    0.00000
  0     2      8.48940    0.00000      8.48940    0.00000
  0     3      8.74397    0.00000      8.74397    0.00000

  1     1      8.44380    0.00000      8.44380    0.00000
  1     2      8.44380    0.00000      8.44380    0.00000
  1     3      8.48708    0.00000      8.48708    0.00000


Input parameters:
  convergence: {bands: all}
  eigensolver: {name: cg,
                niter: 5}
  fixdensity: True
  kpts: {npoints: 50,
         path: GPZQGFP1Q1LZ}
  nbands: -4
  symmetry: off

Initialize ...

S-setup:
  name: Sulfur
  id: ca434db9faa07220b7a1d8cb6886b7a9
  Z: 16
  valence: 6
  core: 10
  charge: 0.0
  file: /usr/share/gpaw-setups/S.PBE.gz
  cutoffs: 0.76(comp), 1.77(filt), 1.66(core), lmax=2
  valence states:
                energy  radius
    3s(2.00)   -17.254   0.974
    3p(4.00)    -7.008   0.979
    *s           9.957   0.974
    *p          20.203   0.979
    *d           0.000   0.900

  Using partial waves for S as LCAO basis

Reference energy: -10857.619898

Spin-polarized calculation.
Magnetic moment:  0.000000

Occupation numbers:
  Fixed Fermi level
  Fermi-Dirac: width=0.0200 eV

Convergence criteria:
  Maximum total energy change: 0.0005 eV / electron
  Maximum integral of absolute density change: 0.0001 electrons
  Maximum integral of absolute eigenstate change: 4e-08 eV^2
  Maximum number of iterations: 1500

Symmetries present (total): 1

  ( 1  0  0)
  ( 0  1  0)
  ( 0  0  1)

50 k-points
50 k-points in the irreducible part of the Brillouin zone
       k-points in crystal coordinates                weights
   0:     0.00000000    0.00000000    0.00000000          1/50
   1:     0.06965929   -0.07319785    0.06965929          1/50
   2:     0.13931859   -0.14639570    0.13931859          1/50
   3:     0.20897788   -0.21959355    0.20897788          1/50
   4:     0.27863717   -0.29279140    0.27863717          1/50
   5:     0.34829646   -0.36598925    0.34829646          1/50
   6:     0.41795576   -0.43918710    0.41795576          1/50
   7:     0.48761505   -0.51238495    0.48761505          1/50
   8:     0.50000000   -0.50000000    0.50000000          1/50
   9:     0.49690376   -0.37809624    0.49690376          1/50
          ...
  49:     0.50000000   -0.50000000    0.50000000          1/50

Wave functions: Plane wave expansion
  Cutoff energy: 400.000 eV
  Number of coefficients (min, max): 301, 318
  Using FFTW library
  Eigensolver: None  MatrixOperator buffer_size: default value or 
                              see value of nblock in input file
Diagonalizer layout: Serial LAPACKOrthonormalizer layout: Serial LAPACK 

CG(niter=5, rtol=3.0e-01) 

No density mixing

Memory estimate:
  Process memory now: 986.76 MiB
  Calculator: 6.94 MiB
    Density: 1.06 MiB
      Arrays: 0.46 MiB
      Localized functions: 0.34 MiB
      Mixer: 0.26 MiB
    Hamiltonian: 0.35 MiB
      Arrays: 0.34 MiB
      XC: 0.00 MiB
      Poisson: 0.00 MiB
      vbar: 0.01 MiB
    Wavefunctions: 5.53 MiB
      Arrays psit_nG: 3.40 MiB
      Eigensolver: 0.06 MiB
      Projections: 0.14 MiB
      Projectors: 1.66 MiB
      Overlap op: 0.03 MiB
      PW-descriptor: 0.24 MiB

Total number of cores used: 1

Number of atoms: 1
Number of atomic orbitals: 4
Number of bands in calculation: 7
Bands to converge: all
Number of valence electrons: 6

... initialized

Initializing position-dependent things.

Creating initial wave functions:
  4 bands from LCAO basis set
  3 bands from random numbers

                
                
                
       S        
                
                
                
                

Positions:
   0 S      0.000000    0.000000    0.000000

Unit cell:
           periodic     x           y           z      points  spacing
  1. axis:    yes    2.581529    0.000000    0.000000    12     0.2150
  2. axis:    yes   -0.065568    2.580696    0.000000    12     0.2150
  3. axis:    yes   -0.065568   -0.067255    2.579820    12     0.2150

  Lengths:   2.581529   2.581529   2.581529
  Angles:   91.455414  91.455414  91.455414

Effective grid spacing dv^(1/3) = 0.2151

                     log10-error:    total        iterations:
           time      wfs    density  energy       fermi  poisson  magmom
iter:   1  23:38:46  +3.92           -1.892292    32              -0.0093
iter:   2  23:38:49  +2.85           -2.016557    32              -0.0013
iter:   3  23:38:52  +1.94           -2.025439    32              -0.0002
iter:   4  23:38:54  +1.14           -2.026234    32              -0.0000
iter:   5  23:38:57  +0.25           -2.026316    33              -0.0000
iter:   6  23:38:59  -0.52           -2.026327    31              -0.0000
iter:   7  23:39:02  -1.28           -2.026329    32              -0.0000
iter:   8  23:39:05  -1.63           -2.026330    30              -0.0000
iter:   9  23:39:07  -2.27           -2.026330    32              -0.0000
iter:  10  23:39:10  -2.94           -2.026330    32              -0.0000
iter:  11  23:39:12  -3.26           -2.026330    32              -0.0000
iter:  12  23:39:14  -3.85           -2.026330    32              -0.0000
iter:  13  23:39:15  -4.08           -2.026330    31              +0.0000
iter:  14  23:39:16  -4.59           -2.026330    31              +0.0000
iter:  15  23:39:17  -5.21           -2.026330    31              +0.0000
iter:  16  23:39:18  -5.46           -2.026330    31              +0.0000
iter:  17  23:39:19  -5.94           -2.026330    31              +0.0000
iter:  18  23:39:20  -6.29           -2.026330    31              +0.0000
iter:  19  23:39:20  -6.14           -2.026330    31              +0.0000
iter:  20  23:39:21  -6.93           -2.026330    31              +0.0000
iter:  21  23:39:22  -6.65           -2.026330    31              +0.0000
iter:  22  23:39:22  -7.27           -2.026330    31              +0.0000
iter:  23  23:39:23  -7.78           -2.026330    31              +0.0000

Converged after 23 iterations.

Dipole moment: (0.000000, 0.000000, -0.000000) |e|*Ang

Total magnetic moment: 0.000000
Local magnetic moments:
   0 S  0.000000

Energy contributions relative to reference atoms: (reference = -10857.619898)

Kinetic:         +2.896958
Potential:       -1.452230
External:        +0.000000
XC:              -3.544202
Entropy (-ST):   -0.001173
Local:           +0.073731
--------------------------
Free energy:     -2.026917
Extrapolated:    -2.026330

Spin contamination: 0.000000 electrons
Fixed Fermi level: 7.38820

Warning: Showing only first 2 kpts
                      Up                     Down
 Kpt  Band  Eigenvalues  Occupancy  Eigenvalues  Occupancy
  0     1      8.95781    0.00000      8.95781    0.00000
  0     2      9.17923    0.00000      9.17923    0.00000
  0     3      9.17923    0.00000      9.17923    0.00000
  0     4     14.86781    0.00000     14.86781    0.00000

  1     1      8.17734    0.00000      8.17734    0.00000
  1     2      8.35914    0.00000      8.35914    0.00000
  1     3      8.62288    0.00000      8.62288    0.00000
  1     4     16.12077    0.00000     16.12077    0.00000


Timing:                              incl.     excl.
-----------------------------------------------------------
Hamiltonian:                         0.517     0.001   0.0% |
 Atomic:                             0.394     0.002   0.0% |
  XC Correction:                     0.392     0.392   0.6% |
 Calculate atomic Hamiltonians:      0.007     0.007   0.0% |
 Communicate:                        0.000     0.000   0.0% |
 Initialize Hamiltonian:             0.000     0.000   0.0% |
 Poisson:                            0.000     0.000   0.0% |
 XC 3D grid:                         0.114     0.114   0.2% |
LCAO initialization:                 2.388     0.050   0.1% |
 LCAO eigensolver:                   1.369     0.020   0.0% |
  Calculate projections:             0.005     0.005   0.0% |
  DenseAtomicCorrection:             0.036     0.036   0.1% |
  Distribute overlap matrix:         0.008     0.008   0.0% |
  Orbital Layouts:                   0.037     0.037   0.1% |
  Potential matrix:                  0.177     0.177   0.3% |
  Sum over cells:                    1.086     1.086   1.8% ||
 LCAO to grid:                       0.499     0.499   0.8% |
 Set positions (LCAO WFS):           0.471     0.001   0.0% |
  Basic WFS set positions:           0.001     0.001   0.0% |
  Basis functions set positions:     0.000     0.000   0.0% |
  TCI: Calculate S, T, P:            0.469     0.469   0.8% |
PWDescriptor:                        0.023     0.023   0.0% |
Redistribute:                        0.000     0.000   0.0% |
SCF-cycle:                          56.405     9.194  14.9% |-----|
 CG:                                27.629    24.152  39.2% |---------------|
  CG: orthonormalize:                3.477     2.029   3.3% ||
   CG: overlap:                      0.891     0.891   1.4% ||
   CG: overlap2:                     0.557     0.557   0.9% |
 Davidson:                           7.378     4.507   7.3% |--|
  calc. matrices:                    1.928     1.928   3.1% ||
  diagonalize:                       0.554     0.554   0.9% |
  rotate_psi:                        0.389     0.389   0.6% |
 Density:                            1.178     0.001   0.0% |
  Atomic density matrices:           0.049     0.049   0.1% |
  Mix:                               0.073     0.073   0.1% |
  Multipole moments:                 0.002     0.002   0.0% |
  Pseudo density:                    1.054     0.989   1.6% ||
   Symmetrize density:               0.065     0.065   0.1% |
 Hamiltonian:                        3.105     0.007   0.0% |
  Atomic:                            2.409     0.013   0.0% |
   XC Correction:                    2.396     2.396   3.9% |-|
  Calculate atomic Hamiltonians:     0.040     0.040   0.1% |
  Communicate:                       0.000     0.000   0.0% |
  Poisson:                           0.003     0.003   0.0% |
  XC 3D grid:                        0.646     0.646   1.0% |
 Orthonormalize:                     0.190     0.016   0.0% |
  Band Layouts:                      0.011     0.004   0.0% |
   Inverse Cholesky:                 0.007     0.007   0.0% |
  calc_s_matrix:                     0.029     0.029   0.0% |
  projections:                       0.110     0.110   0.2% |
  rotate_psi:                        0.025     0.025   0.0% |
 Residuals:                          1.579     1.579   2.6% ||
 Subspace diag:                      6.152     0.460   0.7% |
  Band Layouts:                      0.758     0.135   0.2% |
   Diagonalize:                      0.527     0.527   0.9% |
   Distribute results:               0.096     0.096   0.2% |
  calc_h_matrix:                     4.108     4.108   6.7% |--|
  rotate_psi:                        0.826     0.826   1.3% ||
Set symmetry:                        0.044     0.044   0.1% |
Other:                               2.288     2.288   3.7% ||
-----------------------------------------------------------
Total:                                        61.666 100.0%

Date: Sat Feb 13 23:39:24 2021
element =  S
struct =  rhombohedral
kpts =  (8,8,8)
element =  S
configuration =  [Ne] 3s2 3p4 3d0
valence =  ['3s', '3p', '3d']
occupations =  {'3s': 2, '3p': 4, '3d': 0}
nls =  3p
rNum =  600
lmax =  d
*******************************************
Starting confinement parameter optimization
Adjustable parameters and initial values:
  S_3d.r0 : 3.968425
  S_3p.r0 : 3.968425
  S_3s.r0 : 3.968425
  S_n.r0 : 5.952637
*******************************************

OPT_VAL: 3.9684248642575497   3.9684248642575497   3.9684248642575497   5.9526372963863246
VCONF:
  S_3d : PowerConfinement(r0=3.968425, s=2.000000)
  S_3p : PowerConfinement(r0=3.968425, s=2.000000)
  S_3s : PowerConfinement(r0=3.968425, s=2.000000)
  S_n : PowerConfinement(r0=5.952637, s=2.000000)
RESIDUAL: 0.0

OPT_VAL: 4.16842486425755   3.9684248642575497   3.9684248642575497   5.9526372963863246
VCONF:
  S_3d : PowerConfinement(r0=4.168425, s=2.000000)
  S_3p : PowerConfinement(r0=3.968425, s=2.000000)
  S_3s : PowerConfinement(r0=3.968425, s=2.000000)
  S_n : PowerConfinement(r0=5.952637, s=2.000000)
RESIDUAL: 0.0

OPT_VAL: 3.9684248642575497   4.16842486425755   3.9684248642575497   5.9526372963863246
VCONF:
  S_3d : PowerConfinement(r0=3.968425, s=2.000000)
  S_3p : PowerConfinement(r0=4.168425, s=2.000000)
  S_3s : PowerConfinement(r0=3.968425, s=2.000000)
  S_n : PowerConfinement(r0=5.952637, s=2.000000)
RESIDUAL: 0.0

OPT_VAL: 3.9684248642575497   3.9684248642575497   4.16842486425755   5.9526372963863246
VCONF:
  S_3d : PowerConfinement(r0=3.968425, s=2.000000)
  S_3p : PowerConfinement(r0=3.968425, s=2.000000)
  S_3s : PowerConfinement(r0=4.168425, s=2.000000)
  S_n : PowerConfinement(r0=5.952637, s=2.000000)
RESIDUAL: 0.0

OPT_VAL: 3.9684248642575497   3.9684248642575497   3.9684248642575497   6.152637296386325
VCONF:
  S_3d : PowerConfinement(r0=3.968425, s=2.000000)
  S_3p : PowerConfinement(r0=3.968425, s=2.000000)
  S_3s : PowerConfinement(r0=3.968425, s=2.000000)
  S_n : PowerConfinement(r0=6.152637, s=2.000000)
RESIDUAL: 0.0

OPT_VAL: 3.9934248642575496   3.9684248642575497   3.9684248642575497   5.9526372963863246
VCONF:
  S_3d : PowerConfinement(r0=3.993425, s=2.000000)
  S_3p : PowerConfinement(r0=3.968425, s=2.000000)
  S_3s : PowerConfinement(r0=3.968425, s=2.000000)
  S_n : PowerConfinement(r0=5.952637, s=2.000000)
RESIDUAL: 0.0

OPT_VAL: 3.9684248642575497   3.9934248642575496   3.9684248642575497   5.9526372963863246
VCONF:
  S_3d : PowerConfinement(r0=3.968425, s=2.000000)
  S_3p : PowerConfinement(r0=3.993425, s=2.000000)
  S_3s : PowerConfinement(r0=3.968425, s=2.000000)
  S_n : PowerConfinement(r0=5.952637, s=2.000000)
RESIDUAL: 0.0

OPT_VAL: 3.9684248642575497   3.9684248642575497   3.9934248642575496   5.9526372963863246
VCONF:
  S_3d : PowerConfinement(r0=3.968425, s=2.000000)
  S_3p : PowerConfinement(r0=3.968425, s=2.000000)
  S_3s : PowerConfinement(r0=3.993425, s=2.000000)
  S_n : PowerConfinement(r0=5.952637, s=2.000000)
RESIDUAL: 0.0

OPT_VAL: 3.9684248642575497   3.9684248642575497   3.9684248642575497   5.977637296386325
VCONF:
  S_3d : PowerConfinement(r0=3.968425, s=2.000000)
  S_3p : PowerConfinement(r0=3.968425, s=2.000000)
  S_3s : PowerConfinement(r0=3.968425, s=2.000000)
  S_n : PowerConfinement(r0=5.977637, s=2.000000)
RESIDUAL: 0.0

OPT_VAL: 3.9734248642575496   3.9684248642575497   3.9684248642575497   5.9526372963863246
VCONF:
  S_3d : PowerConfinement(r0=3.973425, s=2.000000)
  S_3p : PowerConfinement(r0=3.968425, s=2.000000)
  S_3s : PowerConfinement(r0=3.968425, s=2.000000)
  S_n : PowerConfinement(r0=5.952637, s=2.000000)
RESIDUAL: 0.0

OPT_VAL: 3.9684248642575497   3.9734248642575496   3.9684248642575497   5.9526372963863246
VCONF:
  S_3d : PowerConfinement(r0=3.968425, s=2.000000)
  S_3p : PowerConfinement(r0=3.973425, s=2.000000)
  S_3s : PowerConfinement(r0=3.968425, s=2.000000)
  S_n : PowerConfinement(r0=5.952637, s=2.000000)
RESIDUAL: 0.0

OPT_VAL: 3.9684248642575497   3.9684248642575497   3.9734248642575496   5.9526372963863246
VCONF:
  S_3d : PowerConfinement(r0=3.968425, s=2.000000)
  S_3p : PowerConfinement(r0=3.968425, s=2.000000)
  S_3s : PowerConfinement(r0=3.973425, s=2.000000)
  S_n : PowerConfinement(r0=5.952637, s=2.000000)
RESIDUAL: 0.0

OPT_VAL: 3.9684248642575497   3.9684248642575497   3.9684248642575497   5.957637296386324
VCONF:
  S_3d : PowerConfinement(r0=3.968425, s=2.000000)
  S_3p : PowerConfinement(r0=3.968425, s=2.000000)
  S_3s : PowerConfinement(r0=3.968425, s=2.000000)
  S_n : PowerConfinement(r0=5.957637, s=2.000000)
RESIDUAL: 0.0

*******************************************
Optimization finished after 13 iterations
Adjustable parameters and final values:
  S_3d.r0 : 3.968425
  S_3p.r0 : 3.968425
  S_3s.r0 : 3.968425
  S_n.r0 : 5.952637
*******************************************

VCONF:
  S_3d : PowerConfinement(r0=3.968425, s=2.000000)
  S_3p : PowerConfinement(r0=3.968425, s=2.000000)
  S_3s : PowerConfinement(r0=3.968425, s=2.000000)
  S_n : PowerConfinement(r0=5.952637, s=2.000000)
