
     Program PWSCF v.6.0 (svn rev. 13079) starts on 26Feb2021 at 15:31:42 

     This program is part of the open-source Quantum ESPRESSO suite
     for quantum simulation of materials; please cite
         "P. Giannozzi et al., J. Phys.:Condens. Matter 21 395502 (2009);
          URL http://www.quantum-espresso.org", 
     in publications or presentations arising from this work. More details at
     http://www.quantum-espresso.org/quote

     Parallel version (MPI), running on     1 processors
     Reading input from espresso.pwi
Warning: card &IONS ignored
Warning: card / ignored
Warning: card &CELL ignored
Warning: card / ignored

     Current dimensions of program PWSCF are:
     Max number of different atomic species (ntypx) = 10
     Max number of k-points (npk) =  40000
     Max angular momentum in pseudopotentials (lmaxx) =  3
     Message from routine input:
     WARNING: "startingwfc" set to atomic+random may spoil restart

     Atomic positions and unit cell read from directory:
     ./pwscf.save/


     IMPORTANT: XC functional enforced from input :
     Exchange-correlation      = PBE ( 1  4  3  4 0 0)
     Any further DFT definition will be discarded
     Please, verify this is what you really want


     Subspace diagonalization in iterative solution of the eigenvalue problem:
     a serial algorithm will be used


     G-vector sticks info
     --------------------
     sticks:   dense  smooth     PW     G-vecs:    dense   smooth      PW
     Sum         511     421    121                15195    10923    1871



     bravais-lattice index     =            0
     lattice parameter (alat)  =       6.1152  a.u.
     unit-cell volume          =     317.5994 (a.u.)^3
     number of atoms/cell      =            2
     number of atomic types    =            1
     number of electrons       =        24.00
     number of Kohn-Sham states=           16
     kinetic-energy cutoff     =      40.0000  Ry
     charge density cutoff     =     200.0000  Ry
     Exchange-correlation      = PBE ( 1  4  3  4 0 0)

     celldm(1)=   6.115207  celldm(2)=   0.000000  celldm(3)=   0.000000
     celldm(4)=   0.000000  celldm(5)=   0.000000  celldm(6)=   0.000000

     crystal axes: (cart. coord. in units of alat)
               a(1) = (   1.000000   0.000000   0.000000 )  
               a(2) = (  -0.500000   0.866025   0.000000 )  
               a(3) = (   0.000000   0.000000   1.603672 )  

     reciprocal axes: (cart. coord. in units 2 pi/alat)
               b(1) = (  1.000000  0.577350 -0.000000 )  
               b(2) = (  0.000000  1.154701  0.000000 )  
               b(3) = (  0.000000 -0.000000  0.623569 )  


     PseudoPot. # 1 for Zr read from file:
     /home/inukai/tango/tests/1element/qe_fit_v3_Zr/../pseudo/zr_pbe_v1.uspp.F.UPF
     MD5 check sum: 5db81b1e868ab7776c4564c113de050b
     Pseudo is Ultrasoft + core correction, Zval = 12.0
     Generated by new atomic code, or converted to UPF format
     Using radial grid of  887 points,  6 beta functions with: 
                l(1) =   0
                l(2) =   0
                l(3) =   1
                l(4) =   1
                l(5) =   2
                l(6) =   2
     Q(r) pseudized with  6 coefficients,  rinner =    1.200   1.200   1.200
                                                       1.200   1.200

     atomic species   valence    mass     pseudopotential
        Zr            12.00    91.22400     Zr( 1.00)

     12 Sym. Ops., with inversion, found
          (note: 12 additional sym.ops. were found but ignored
           their fractional translations are incommensurate with FFT grid)

                                    s                        frac. trans.

      isym =  1     identity                                     

 cryst.   s( 1) = (     1          0          0      )
                  (     0          1          0      )
                  (     0          0          1      )

 cart.    s( 1) = (  1.0000000  0.0000000  0.0000000 )
                  (  0.0000000  1.0000000  0.0000000 )
                  (  0.0000000  0.0000000  1.0000000 )


      isym =  2     180 deg rotation - cart. axis [1,0,0]        

 cryst.   s( 2) = (     1          0          0      )
                  (    -1         -1          0      )
                  (     0          0         -1      )

 cart.    s( 2) = (  1.0000000  0.0000000  0.0000000 )
                  (  0.0000000 -1.0000000  0.0000000 )
                  (  0.0000000  0.0000000 -1.0000000 )


      isym =  3     120 deg rotation - cryst. axis [0,0,1]       

 cryst.   s( 3) = (     0          1          0      )
                  (    -1         -1          0      )
                  (     0          0          1      )

 cart.    s( 3) = ( -0.5000000 -0.8660254  0.0000000 )
                  (  0.8660254 -0.5000000  0.0000000 )
                  (  0.0000000  0.0000000  1.0000000 )


      isym =  4     120 deg rotation - cryst. axis [0,0,-1]      

 cryst.   s( 4) = (    -1         -1          0      )
                  (     1          0          0      )
                  (     0          0          1      )

 cart.    s( 4) = ( -0.5000000  0.8660254  0.0000000 )
                  ( -0.8660254 -0.5000000  0.0000000 )
                  (  0.0000000  0.0000000  1.0000000 )


      isym =  5     180 deg rotation - cryst. axis [0,1,0]       

 cryst.   s( 5) = (    -1         -1          0      )
                  (     0          1          0      )
                  (     0          0         -1      )

 cart.    s( 5) = ( -0.5000000 -0.8660254  0.0000000 )
                  ( -0.8660254  0.5000000  0.0000000 )
                  (  0.0000000  0.0000000 -1.0000000 )


      isym =  6     180 deg rotation - cryst. axis [1,1,0]       

 cryst.   s( 6) = (     0          1          0      )
                  (     1          0          0      )
                  (     0          0         -1      )

 cart.    s( 6) = ( -0.5000000  0.8660254  0.0000000 )
                  (  0.8660254  0.5000000  0.0000000 )
                  (  0.0000000  0.0000000 -1.0000000 )


      isym =  7     inversion                                    

 cryst.   s( 7) = (    -1          0          0      )
                  (     0         -1          0      )
                  (     0          0         -1      )

 cart.    s( 7) = ( -1.0000000  0.0000000  0.0000000 )
                  (  0.0000000 -1.0000000  0.0000000 )
                  (  0.0000000  0.0000000 -1.0000000 )


      isym =  8     inv. 180 deg rotation - cart. axis [1,0,0]   

 cryst.   s( 8) = (    -1          0          0      )
                  (     1          1          0      )
                  (     0          0          1      )

 cart.    s( 8) = ( -1.0000000  0.0000000  0.0000000 )
                  (  0.0000000  1.0000000  0.0000000 )
                  (  0.0000000  0.0000000  1.0000000 )


      isym =  9     inv. 120 deg rotation - cryst. axis [0,0,1]  

 cryst.   s( 9) = (     0         -1          0      )
                  (     1          1          0      )
                  (     0          0         -1      )

 cart.    s( 9) = (  0.5000000  0.8660254  0.0000000 )
                  ( -0.8660254  0.5000000  0.0000000 )
                  (  0.0000000  0.0000000 -1.0000000 )


      isym = 10     inv. 120 deg rotation - cryst. axis [0,0,-1] 

 cryst.   s(10) = (     1          1          0      )
                  (    -1          0          0      )
                  (     0          0         -1      )

 cart.    s(10) = (  0.5000000 -0.8660254  0.0000000 )
                  (  0.8660254  0.5000000  0.0000000 )
                  (  0.0000000  0.0000000 -1.0000000 )


      isym = 11     inv. 180 deg rotation - cryst. axis [0,1,0]  

 cryst.   s(11) = (     1          1          0      )
                  (     0         -1          0      )
                  (     0          0          1      )

 cart.    s(11) = (  0.5000000  0.8660254  0.0000000 )
                  (  0.8660254 -0.5000000  0.0000000 )
                  (  0.0000000  0.0000000  1.0000000 )


      isym = 12     inv. 180 deg rotation - cryst. axis [1,1,0]  

 cryst.   s(12) = (     0         -1          0      )
                  (    -1          0          0      )
                  (     0          0          1      )

 cart.    s(12) = (  0.5000000 -0.8660254  0.0000000 )
                  ( -0.8660254 -0.5000000  0.0000000 )
                  (  0.0000000  0.0000000  1.0000000 )


   Cartesian axes

     site n.     atom                  positions (alat units)
         1           Zr  tau(   1) = (   0.0000000   0.5773503   1.2027541  )
         2           Zr  tau(   2) = (   0.5000000   0.2886751   0.4009180  )

   Crystallographic axes

     site n.     atom                  positions (cryst. coord.)
         1           Zr  tau(   1) = (  0.3333333  0.6666667  0.7500000  )
         2           Zr  tau(   2) = (  0.6666667  0.3333333  0.2500000  )

     number of k points=    50  gaussian smearing, width (Ry)=  0.0010
                       cart. coord. in units 2pi/alat
        k(    1) = (   0.0000000   0.0000000   0.0000000), wk =   0.0400000
        k(    2) = (   0.0833333   0.0481125   0.0000000), wk =   0.0400000
        k(    3) = (   0.1666667   0.0962250   0.0000000), wk =   0.0400000
        k(    4) = (   0.2500000   0.1443376   0.0000000), wk =   0.0400000
        k(    5) = (   0.3333333   0.1924501   0.0000000), wk =   0.0400000
        k(    6) = (   0.4166667   0.2405626   0.0000000), wk =   0.0400000
        k(    7) = (   0.5000000   0.2886751   0.0000000), wk =   0.0400000
        k(    8) = (   0.4444444   0.3849002   0.0000000), wk =   0.0400000
        k(    9) = (   0.3888889   0.4811252   0.0000000), wk =   0.0400000
        k(   10) = (   0.3333333   0.5773503   0.0000000), wk =   0.0400000
        k(   11) = (   0.2916667   0.5051815   0.0000000), wk =   0.0400000
        k(   12) = (   0.2500000   0.4330127   0.0000000), wk =   0.0400000
        k(   13) = (   0.2083333   0.3608439   0.0000000), wk =   0.0400000
        k(   14) = (   0.1666667   0.2886751   0.0000000), wk =   0.0400000
        k(   15) = (   0.1250000   0.2165064   0.0000000), wk =   0.0400000
        k(   16) = (   0.0833333   0.1443376   0.0000000), wk =   0.0400000
        k(   17) = (   0.0416667   0.0721688   0.0000000), wk =   0.0400000
        k(   18) = (   0.0000000   0.0000000   0.0000000), wk =   0.0400000
        k(   19) = (   0.0000000   0.0000000   0.1039281), wk =   0.0400000
        k(   20) = (   0.0000000   0.0000000   0.2078563), wk =   0.0400000
        k(   21) = (   0.0000000   0.0000000   0.3117844), wk =   0.0400000
        k(   22) = (   0.0714286   0.0412393   0.3117844), wk =   0.0400000
        k(   23) = (   0.1428571   0.0824786   0.3117844), wk =   0.0400000
        k(   24) = (   0.2142857   0.1237179   0.3117844), wk =   0.0400000
        k(   25) = (   0.2857143   0.1649572   0.3117844), wk =   0.0400000
        k(   26) = (   0.3571429   0.2061965   0.3117844), wk =   0.0400000
        k(   27) = (   0.4285714   0.2474358   0.3117844), wk =   0.0400000
        k(   28) = (   0.5000000   0.2886751   0.3117844), wk =   0.0400000
        k(   29) = (   0.4583333   0.3608439   0.3117844), wk =   0.0400000
        k(   30) = (   0.4166667   0.4330127   0.3117844), wk =   0.0400000
        k(   31) = (   0.3750000   0.5051815   0.3117844), wk =   0.0400000
        k(   32) = (   0.3333333   0.5773503   0.3117844), wk =   0.0400000
        k(   33) = (   0.2962963   0.5132002   0.3117844), wk =   0.0400000
        k(   34) = (   0.2592593   0.4490502   0.3117844), wk =   0.0400000
        k(   35) = (   0.2222222   0.3849002   0.3117844), wk =   0.0400000
        k(   36) = (   0.1851852   0.3207501   0.3117844), wk =   0.0400000
        k(   37) = (   0.1481481   0.2566001   0.3117844), wk =   0.0400000
        k(   38) = (   0.1111111   0.1924501   0.3117844), wk =   0.0400000
        k(   39) = (   0.0740741   0.1283001   0.3117844), wk =   0.0400000
        k(   40) = (   0.0370370   0.0641500   0.3117844), wk =   0.0400000
        k(   41) = (   0.0000000   0.0000000   0.3117844), wk =   0.0400000
        k(   42) = (   0.5000000   0.2886751   0.3117844), wk =   0.0400000
        k(   43) = (   0.5000000   0.2886751   0.2078563), wk =   0.0400000
        k(   44) = (   0.5000000   0.2886751   0.1039281), wk =   0.0400000
        k(   45) = (   0.5000000   0.2886751   0.0000000), wk =   0.0400000
        k(   46) = (   0.3333333   0.5773503   0.0000000), wk =   0.0400000
        k(   47) = (   0.3333333   0.5773503   0.0779461), wk =   0.0400000
        k(   48) = (   0.3333333   0.5773503   0.1558922), wk =   0.0400000
        k(   49) = (   0.3333333   0.5773503   0.2338383), wk =   0.0400000
        k(   50) = (   0.3333333   0.5773503   0.3117844), wk =   0.0400000

                       cryst. coord.
        k(    1) = (   0.0000000   0.0000000   0.0000000), wk =   0.0400000
        k(    2) = (   0.0833333  -0.0000000   0.0000000), wk =   0.0400000
        k(    3) = (   0.1666667  -0.0000000   0.0000000), wk =   0.0400000
        k(    4) = (   0.2500000  -0.0000000   0.0000000), wk =   0.0400000
        k(    5) = (   0.3333333  -0.0000000   0.0000000), wk =   0.0400000
        k(    6) = (   0.4166667  -0.0000000   0.0000000), wk =   0.0400000
        k(    7) = (   0.5000000  -0.0000000   0.0000000), wk =   0.0400000
        k(    8) = (   0.4444444   0.1111111   0.0000000), wk =   0.0400000
        k(    9) = (   0.3888889   0.2222222   0.0000000), wk =   0.0400000
        k(   10) = (   0.3333333   0.3333333   0.0000000), wk =   0.0400000
        k(   11) = (   0.2916667   0.2916667   0.0000000), wk =   0.0400000
        k(   12) = (   0.2500000   0.2500000   0.0000000), wk =   0.0400000
        k(   13) = (   0.2083333   0.2083333   0.0000000), wk =   0.0400000
        k(   14) = (   0.1666667   0.1666667   0.0000000), wk =   0.0400000
        k(   15) = (   0.1250000   0.1250000   0.0000000), wk =   0.0400000
        k(   16) = (   0.0833333   0.0833333   0.0000000), wk =   0.0400000
        k(   17) = (   0.0416667   0.0416667   0.0000000), wk =   0.0400000
        k(   18) = (   0.0000000   0.0000000   0.0000000), wk =   0.0400000
        k(   19) = (   0.0000000   0.0000000   0.1666667), wk =   0.0400000
        k(   20) = (   0.0000000   0.0000000   0.3333333), wk =   0.0400000
        k(   21) = (   0.0000000   0.0000000   0.5000000), wk =   0.0400000
        k(   22) = (   0.0714286  -0.0000000   0.5000000), wk =   0.0400000
        k(   23) = (   0.1428571  -0.0000000   0.5000000), wk =   0.0400000
        k(   24) = (   0.2142857  -0.0000000   0.5000000), wk =   0.0400000
        k(   25) = (   0.2857143  -0.0000000   0.5000000), wk =   0.0400000
        k(   26) = (   0.3571429  -0.0000000   0.5000000), wk =   0.0400000
        k(   27) = (   0.4285714  -0.0000000   0.5000000), wk =   0.0400000
        k(   28) = (   0.5000000  -0.0000000   0.5000000), wk =   0.0400000
        k(   29) = (   0.4583333   0.0833333   0.5000000), wk =   0.0400000
        k(   30) = (   0.4166667   0.1666667   0.5000000), wk =   0.0400000
        k(   31) = (   0.3750000   0.2500000   0.5000000), wk =   0.0400000
        k(   32) = (   0.3333333   0.3333333   0.5000000), wk =   0.0400000
        k(   33) = (   0.2962963   0.2962963   0.5000000), wk =   0.0400000
        k(   34) = (   0.2592593   0.2592593   0.5000000), wk =   0.0400000
        k(   35) = (   0.2222222   0.2222222   0.5000000), wk =   0.0400000
        k(   36) = (   0.1851852   0.1851852   0.5000000), wk =   0.0400000
        k(   37) = (   0.1481481   0.1481481   0.5000000), wk =   0.0400000
        k(   38) = (   0.1111111   0.1111111   0.5000000), wk =   0.0400000
        k(   39) = (   0.0740741   0.0740741   0.5000000), wk =   0.0400000
        k(   40) = (   0.0370370   0.0370370   0.5000000), wk =   0.0400000
        k(   41) = (   0.0000000   0.0000000   0.5000000), wk =   0.0400000
        k(   42) = (   0.5000000  -0.0000000   0.5000000), wk =   0.0400000
        k(   43) = (   0.5000000  -0.0000000   0.3333333), wk =   0.0400000
        k(   44) = (   0.5000000  -0.0000000   0.1666667), wk =   0.0400000
        k(   45) = (   0.5000000  -0.0000000   0.0000000), wk =   0.0400000
        k(   46) = (   0.3333333   0.3333333   0.0000000), wk =   0.0400000
        k(   47) = (   0.3333333   0.3333333   0.1250000), wk =   0.0400000
        k(   48) = (   0.3333333   0.3333333   0.2500000), wk =   0.0400000
        k(   49) = (   0.3333333   0.3333333   0.3750000), wk =   0.0400000
        k(   50) = (   0.3333333   0.3333333   0.5000000), wk =   0.0400000

     Dense  grid:    15195 G-vectors     FFT dimensions: (  27,  27,  45)

     Smooth grid:    10923 G-vectors     FFT dimensions: (  25,  25,  40)

     Estimated max dynamical RAM per process >      24.54Mb

     Check: negative/imaginary core charge=   -0.000002    0.000000

     The potential is recalculated from file :
     ./pwscf.save/charge-density.dat


     negative rho (up, down):  1.225E-01 0.000E+00
     Starting wfc are   26 randomized atomic wfcs

     Band Structure Calculation
     Davidson diagonalization with overlap

     Computing kpt #:     1
     total cpu time spent up to now is        0.9 secs

     Computing kpt #:     2
     total cpu time spent up to now is        1.2 secs

     Computing kpt #:     3
     total cpu time spent up to now is        1.5 secs

     Computing kpt #:     4
     total cpu time spent up to now is        1.9 secs

     Computing kpt #:     5
     total cpu time spent up to now is        2.2 secs

     Computing kpt #:     6
     total cpu time spent up to now is        2.6 secs

     Computing kpt #:     7
     total cpu time spent up to now is        2.9 secs

     Computing kpt #:     8
     total cpu time spent up to now is        3.2 secs

     Computing kpt #:     9
     total cpu time spent up to now is        3.6 secs

     Computing kpt #:    10
     total cpu time spent up to now is        3.9 secs

     Computing kpt #:    11
     total cpu time spent up to now is        4.2 secs

     Computing kpt #:    12
     total cpu time spent up to now is        4.5 secs

     Computing kpt #:    13
     total cpu time spent up to now is        4.8 secs

     Computing kpt #:    14
     total cpu time spent up to now is        5.1 secs

     Computing kpt #:    15
     total cpu time spent up to now is        5.4 secs

     Computing kpt #:    16
     total cpu time spent up to now is        5.7 secs

     Computing kpt #:    17
     total cpu time spent up to now is        6.0 secs

     Computing kpt #:    18
     total cpu time spent up to now is        6.3 secs

     Computing kpt #:    19
     total cpu time spent up to now is        6.6 secs

     Computing kpt #:    20
     total cpu time spent up to now is        6.9 secs

     Computing kpt #:    21
     total cpu time spent up to now is        7.2 secs

     Computing kpt #:    22
     total cpu time spent up to now is        7.4 secs

     Computing kpt #:    23
     total cpu time spent up to now is        7.7 secs

     Computing kpt #:    24
     total cpu time spent up to now is        8.0 secs

     Computing kpt #:    25
     total cpu time spent up to now is        8.3 secs

     Computing kpt #:    26
     total cpu time spent up to now is        8.6 secs

     Computing kpt #:    27
     total cpu time spent up to now is        8.9 secs

     Computing kpt #:    28
     total cpu time spent up to now is        9.1 secs

     Computing kpt #:    29
     total cpu time spent up to now is        9.5 secs

     Computing kpt #:    30
     total cpu time spent up to now is        9.7 secs

     Computing kpt #:    31
     total cpu time spent up to now is       10.0 secs

     Computing kpt #:    32
     total cpu time spent up to now is       10.3 secs

     Computing kpt #:    33
     total cpu time spent up to now is       10.6 secs

     Computing kpt #:    34
     total cpu time spent up to now is       10.9 secs

     Computing kpt #:    35
     total cpu time spent up to now is       11.2 secs

     Computing kpt #:    36
     total cpu time spent up to now is       11.5 secs

     Computing kpt #:    37
     total cpu time spent up to now is       11.8 secs

     Computing kpt #:    38
     total cpu time spent up to now is       12.0 secs

     Computing kpt #:    39
     total cpu time spent up to now is       12.3 secs

     Computing kpt #:    40
     total cpu time spent up to now is       12.6 secs

     Computing kpt #:    41
     total cpu time spent up to now is       12.9 secs

     Computing kpt #:    42
     total cpu time spent up to now is       13.2 secs

     Computing kpt #:    43
     total cpu time spent up to now is       13.5 secs

     Computing kpt #:    44
     total cpu time spent up to now is       13.8 secs

     Computing kpt #:    45
     total cpu time spent up to now is       14.1 secs

     Computing kpt #:    46
     total cpu time spent up to now is       14.5 secs

     Computing kpt #:    47
     total cpu time spent up to now is       14.8 secs

     Computing kpt #:    48
     total cpu time spent up to now is       15.1 secs

     Computing kpt #:    49
     total cpu time spent up to now is       15.4 secs

     Computing kpt #:    50
     total cpu time spent up to now is       15.7 secs

     ethr =  4.17E-10,  avg # of iterations = 13.9

     total cpu time spent up to now is       15.7 secs

     End of band structure calculation

          k = 0.0000 0.0000 0.0000 (  1387 PWs)   bands (ev):

   -34.8870 -34.7432 -13.3860 -12.5494 -12.5494 -12.4286 -12.4175 -12.4175
     8.3522  10.9804  14.8515  14.8515  14.9302  15.0563  15.5181  15.5181

          k = 0.0833 0.0481 0.0000 (  1357 PWs)   bands (ev):

   -34.8794 -34.7399 -13.3655 -12.5953 -12.5643 -12.4652 -12.4370 -12.4237
     8.5450  11.1576  14.4018  14.6875  15.0303  15.2594  15.3721  15.6860

          k = 0.1667 0.0962 0.0000 (  1359 PWs)   bands (ev):

   -34.8582 -34.7312 -13.3071 -12.7209 -12.6036 -12.5920 -12.4628 -12.4419
     9.0874  11.6083  13.8359  13.8905  14.9382  15.5542  15.5898  15.6029

          k = 0.2500 0.1443 0.0000 (  1351 PWs)   bands (ev):

   -34.8278 -34.7205 -13.2188 -12.8920 -12.7579 -12.6549 -12.5060 -12.4686
     9.8664  11.9917  13.0763  13.4737  14.6485  15.1951  15.2473  16.3824

          k = 0.3333 0.1925 0.0000 (  1348 PWs)   bands (ev):

   -34.7950 -34.7120 -13.1145 -13.0621 -12.9164 -12.7042 -12.5650 -12.4966
    10.6733  11.8976  12.4229  13.4857  14.8229  14.8558  14.9634  17.3800

          k = 0.4167 0.2406 0.0000 (  1356 PWs)   bands (ev):

   -34.7678 -34.7089 -13.1854 -13.0286 -13.0170 -12.7393 -12.6291 -12.5176
    11.2321  11.6499  12.0064  13.6386  14.6362  14.7797  15.2310  18.4245

          k = 0.5000 0.2887 0.0000 (  1368 PWs)   bands (ev):

   -34.7563 -34.7093 -13.2303 -13.0690 -12.9709 -12.7519 -12.6629 -12.5254
    11.4569  11.4947  11.8637  13.7666  14.5606  14.7165  15.3885  18.8464

          k = 0.4444 0.3849 0.0000 (  1360 PWs)   bands (ev):

   -34.7511 -34.7097 -13.2067 -13.0469 -12.9500 -12.7965 -12.6786 -12.5788
    11.7165  11.7265  11.8918  13.5843  14.4154  14.6505  15.4377  18.5952

          k = 0.3889 0.4811 0.0000 (  1356 PWs)   bands (ev):

   -34.7379 -34.7128 -13.1447 -12.9894 -12.8989 -12.8912 -12.7260 -12.7066
    11.9329  12.2506  12.3295  13.1657  14.1955  14.4642  15.5888  18.0547

          k = 0.3333 0.5774 0.0000 (  1362 PWs)   bands (ev):

   -34.7224 -34.7224 -13.0976 -12.9537 -12.9537 -12.8053 -12.8053 -12.7966
    11.9340  12.6509  12.6509  12.8629  14.2328  14.2328  15.7336  18.2051

          k = 0.2917 0.5052 0.0000 (  1370 PWs)   bands (ev):

   -34.7363 -34.7133 -13.1074 -12.9945 -12.8979 -12.8840 -12.7529 -12.7320
    11.9621  12.3917  12.7501  12.7646  14.1156  14.4668  15.5894  17.7747

          k = 0.2500 0.4330 0.0000 (  1364 PWs)   bands (ev):

   -34.7567 -34.7089 -13.0871 -13.0153 -12.9751 -12.8152 -12.6768 -12.6585
    11.9142  12.0951  12.6236  12.7489  14.1114  14.8029  15.2145  17.2794

          k = 0.2083 0.3608 0.0000 (  1362 PWs)   bands (ev):

   -34.7827 -34.7099 -13.0730 -13.0117 -12.9835 -12.7326 -12.6001 -12.5906
    11.1614  12.3806  12.6660  12.7136  14.2551  14.8157  15.1618  16.7763

          k = 0.1667 0.2887 0.0000 (  1354 PWs)   bands (ev):

   -34.8119 -34.7158 -13.1697 -12.9017 -12.8876 -12.6590 -12.5327 -12.5324
    10.3296  12.4132  12.8327  13.0019  14.5549  14.6344  15.4805  16.3072

          k = 0.1250 0.2165 0.0000 (  1342 PWs)   bands (ev):

   -34.8406 -34.7247 -13.2568 -12.7884 -12.7396 -12.5961 -12.4866 -12.4793
     9.5495  11.9683  13.4349  13.4416  14.7633  14.9889  15.7255  15.8969

          k = 0.0833 0.1443 0.0000 (  1354 PWs)   bands (ev):

   -34.8650 -34.7339 -13.3261 -12.6719 -12.6145 -12.5319 -12.4541 -12.4424
     8.9139  11.4798  13.9647  14.1310  15.0761  15.4015  15.4948  15.5476

          k = 0.0417 0.0722 0.0000 (  1353 PWs)   bands (ev):

   -34.8813 -34.7407 -13.3706 -12.5832 -12.5617 -12.4526 -12.4349 -12.4228
     8.4974  11.1145  14.4739  14.7741  14.9867  15.2281  15.3886  15.6471

          k = 0.0000 0.0000 0.0000 (  1387 PWs)   bands (ev):

   -34.8870 -34.7432 -13.3860 -12.5494 -12.5494 -12.4286 -12.4175 -12.4175
     8.3522  10.9804  14.8515  14.8515  14.9302  15.0563  15.5181  15.5181

          k = 0.0000 0.0000 0.1039 (  1364 PWs)   bands (ev):

   -34.8775 -34.7530 -13.3256 -12.5406 -12.5406 -12.4970 -12.4264 -12.4264
     8.5778  10.9501  14.6692  14.7527  14.7527  14.7595  15.3595  15.3595

          k = 0.0000 0.0000 0.2079 (  1352 PWs)   bands (ev):

   -34.8515 -34.7796 -13.1583 -12.6805 -12.5166 -12.5166 -12.4507 -12.4507
     9.1997  10.7020  14.0760  14.3530  14.6721  14.6721  15.0364  15.0364

          k = 0.0000 0.0000 0.3118 (  1364 PWs)   bands (ev):

   -34.8157 -34.8157 -12.9234 -12.9234 -12.4838 -12.4838 -12.4838 -12.4838
    10.0302  10.0303  13.9960  13.9960  14.7695  14.7695  14.7695  14.7695

          k = 0.0714 0.0412 0.3118 (  1360 PWs)   bands (ev):

   -34.8116 -34.8116 -12.9279 -12.9279 -12.5081 -12.5081 -12.4916 -12.4916
    10.1549  10.1550  13.8681  13.8682  14.7307  14.7307  14.8730  14.8730

          k = 0.1429 0.0825 0.3118 (  1348 PWs)   bands (ev):

   -34.8002 -34.8002 -12.9480 -12.9480 -12.5679 -12.5679 -12.5136 -12.5136
    10.4908  10.4909  13.5913  13.5914  14.5924  14.5925  15.1635  15.1636

          k = 0.2143 0.1237 0.3118 (  1350 PWs)   bands (ev):

   -34.7836 -34.7836 -13.0010 -13.0010 -12.6281 -12.6281 -12.5452 -12.5452
    10.9065  10.9066  13.3385  13.3385  14.4306  14.4306  15.5689  15.5689

          k = 0.2857 0.1650 0.3118 (  1354 PWs)   bands (ev):

   -34.7652 -34.7652 -13.0918 -13.0918 -12.6597 -12.6597 -12.5800 -12.5800
    11.1839  11.1840  13.1944  13.1944  14.4743  14.4743  15.9399  15.9400

          k = 0.3571 0.2062 0.3118 (  1362 PWs)   bands (ev):

   -34.7485 -34.7485 -13.1920 -13.1920 -12.6672 -12.6672 -12.6111 -12.6111
    11.2301  11.2302  13.0784  13.0785  14.8779  14.8779  16.1342  16.1343

          k = 0.4286 0.2474 0.3118 (  1360 PWs)   bands (ev):

   -34.7369 -34.7369 -13.2667 -13.2667 -12.6656 -12.6656 -12.6324 -12.6324
    11.1780  11.1781  12.9726  12.9726  15.3678  15.3679  16.1863  16.1864

          k = 0.5000 0.2887 0.3118 (  1356 PWs)   bands (ev):

   -34.7327 -34.7327 -13.2940 -13.2940 -12.6642 -12.6642 -12.6400 -12.6400
    11.1487  11.1487  12.9305  12.9306  15.5744  15.5744  16.1922  16.1923

          k = 0.4583 0.3608 0.3118 (  1360 PWs)   bands (ev):

   -34.7314 -34.7314 -13.2804 -13.2804 -12.7176 -12.7176 -12.6136 -12.6136
    11.2789  11.2789  13.0130  13.0131  15.0443  15.0443  16.3936  16.3936

          k = 0.4167 0.4330 0.3118 (  1360 PWs)   bands (ev):

   -34.7279 -34.7279 -13.2426 -13.2426 -12.8078 -12.8078 -12.5946 -12.5946
    11.6330  11.6330  13.2078  13.2079  14.2963  14.2963  16.2828  16.2828

          k = 0.3750 0.5052 0.3118 (  1356 PWs)   bands (ev):

   -34.7241 -34.7241 -13.1927 -13.1927 -12.9030 -12.9030 -12.5849 -12.5849
    12.1187  12.1188  13.1467  13.1468  13.9160  13.9160  16.0429  16.0429

          k = 0.3333 0.5774 0.3118 (  1356 PWs)   bands (ev):

   -34.7223 -34.7223 -13.1653 -13.1653 -12.9497 -12.9496 -12.5818 -12.5818
    12.5671  12.5671  12.7251  12.7252  13.9413  13.9413  15.9848  15.9848

          k = 0.2963 0.5132 0.3118 (  1362 PWs)   bands (ev):

   -34.7242 -34.7242 -13.1800 -13.1800 -12.9163 -12.9163 -12.5840 -12.5840
    12.2323  12.2323  13.0626  13.0627  13.9137  13.9137  15.9389  15.9389

          k = 0.2593 0.4491 0.3118 (  1356 PWs)   bands (ev):

   -34.7305 -34.7305 -13.1892 -13.1892 -12.8483 -12.8483 -12.5892 -12.5892
    11.9318  11.9319  13.3127  13.3128  13.9096  13.9096  15.8042  15.8043

          k = 0.2222 0.3849 0.3118 (  1360 PWs)   bands (ev):

   -34.7413 -34.7413 -13.1661 -13.1661 -12.7755 -12.7755 -12.5937 -12.5937
    11.7107  11.7108  13.3647  13.3647  13.9454  13.9454  15.7637  15.7637

          k = 0.1852 0.3208 0.3118 (  1352 PWs)   bands (ev):

   -34.7559 -34.7559 -13.1109 -13.1109 -12.7116 -12.7116 -12.5899 -12.5899
    11.4976  11.4977  13.3010  13.3010  14.0192  14.0192  15.8340  15.8341

          k = 0.1481 0.2566 0.3118 (  1342 PWs)   bands (ev):

   -34.7725 -34.7725 -13.0397 -13.0397 -12.6615 -12.6615 -12.5694 -12.5694
    11.1977  11.1978  13.2796  13.2797  14.1863  14.1864  15.7671  15.7671

          k = 0.1111 0.1925 0.3118 (  1336 PWs)   bands (ev):

   -34.7890 -34.7890 -12.9778 -12.9778 -12.6121 -12.6121 -12.5378 -12.5378
    10.8029  10.8030  13.4108  13.4108  14.4109  14.4109  15.4534  15.4534

          k = 0.0741 0.1283 0.3118 (  1344 PWs)   bands (ev):

   -34.8030 -34.8030 -12.9416 -12.9416 -12.5538 -12.5538 -12.5090 -12.5090
    10.4116  10.4118  13.6518  13.6518  14.6173  14.6173  15.0975  15.0975

          k = 0.0370 0.0642 0.3118 (  1360 PWs)   bands (ev):

   -34.8124 -34.8124 -12.9269 -12.9269 -12.5035 -12.5035 -12.4902 -12.4902
    10.1313  10.1314  13.8911  13.8911  14.7384  14.7384  14.8537  14.8537

          k = 0.0000 0.0000 0.3118 (  1364 PWs)   bands (ev):

   -34.8157 -34.8157 -12.9234 -12.9234 -12.4838 -12.4838 -12.4838 -12.4838
    10.0302  10.0303  13.9960  13.9960  14.7695  14.7695  14.7695  14.7695

          k = 0.5000 0.2887 0.3118 (  1356 PWs)   bands (ev):

   -34.7327 -34.7327 -13.2940 -13.2940 -12.6642 -12.6642 -12.6400 -12.6400
    11.1487  11.1487  12.9305  12.9306  15.5744  15.5744  16.1922  16.1923

          k = 0.5000 0.2887 0.2079 (  1366 PWs)   bands (ev):

   -34.7445 -34.7210 -13.3118 -13.2193 -12.7660 -12.6963 -12.6234 -12.5831
    10.9683  11.4768  12.7237  13.0457  15.0831  15.3075  15.8603  17.3224

          k = 0.5000 0.2887 0.1039 (  1360 PWs)   bands (ev):

   -34.7531 -34.7124 -13.2720 -13.1208 -12.8958 -12.7371 -12.6403 -12.5409
    11.1289  11.5148  12.4644  13.1730  14.7504  15.2160  15.3296  18.4862

          k = 0.5000 0.2887 0.0000 (  1368 PWs)   bands (ev):

   -34.7563 -34.7093 -13.2303 -13.0690 -12.9709 -12.7519 -12.6629 -12.5254
    11.4569  11.4947  11.8637  13.7666  14.5606  14.7165  15.3885  18.8464

          k = 0.3333 0.5774 0.0000 (  1362 PWs)   bands (ev):

   -34.7224 -34.7224 -13.0976 -12.9537 -12.9537 -12.8053 -12.8053 -12.7966
    11.9340  12.6509  12.6509  12.8629  14.2328  14.2328  15.7336  18.2051

          k = 0.3333 0.5774 0.0779 (  1362 PWs)   bands (ev):

   -34.7224 -34.7224 -13.0865 -13.0096 -13.0096 -12.8085 -12.7477 -12.7477
    12.0095  12.6419  12.6419  12.8714  14.1774  14.1774  15.7124  18.1272

          k = 0.3333 0.5774 0.1559 (  1365 PWs)   bands (ev):

   -34.7224 -34.7224 -13.0893 -13.0893 -13.0548 -12.8420 -12.6637 -12.6637
    12.2156  12.6157  12.6157  12.8824  14.0632  14.0632  15.6812  17.2938

          k = 0.3333 0.5774 0.2338 (  1371 PWs)   bands (ev):

   -34.7223 -34.7223 -13.1455 -13.1455 -13.0069 -12.8917 -12.6034 -12.6034
    12.4877  12.5827  12.5827  12.8528  13.9727  13.9727  15.7309  16.5208

          k = 0.3333 0.5774 0.3118 (  1356 PWs)   bands (ev):

   -34.7223 -34.7223 -13.1653 -13.1653 -12.9497 -12.9496 -12.5818 -12.5818
    12.5671  12.5671  12.7251  12.7252  13.9413  13.9413  15.9848  15.9848

     Writing output data file pwscf.save

     init_run     :      0.77s CPU      0.56s WALL (       1 calls)
     electrons    :     31.59s CPU     15.03s WALL (       1 calls)

     Called by init_run:
     wfcinit      :      0.00s CPU      0.00s WALL (       1 calls)
     wfcinit:atom :      0.09s CPU      0.06s WALL (      50 calls)
     wfcinit:wfcr :      2.88s CPU      1.55s WALL (      50 calls)
     potinit      :      0.02s CPU      0.03s WALL (       1 calls)

     Called by electrons:
     c_bands      :     31.59s CPU     15.03s WALL (       1 calls)
     v_of_rho     :      0.02s CPU      0.03s WALL (       1 calls)
     v_h          :      0.00s CPU      0.00s WALL (       1 calls)
     v_xc         :      0.02s CPU      0.03s WALL (       1 calls)
     newd         :      0.05s CPU      0.10s WALL (       1 calls)

     Called by c_bands:
     init_us_2    :      0.11s CPU      0.06s WALL (      50 calls)
     cegterg      :     27.25s CPU     12.71s WALL (      52 calls)

     Called by sum_band:

     Called by *egterg:
     h_psi        :     20.64s CPU     10.09s WALL (     795 calls)
     s_psi        :      0.62s CPU      0.22s WALL (     795 calls)
     g_psi        :      0.45s CPU      0.13s WALL (     693 calls)
     cdiaghg      :      4.97s CPU      2.32s WALL (     743 calls)
     cegterg:over :      1.69s CPU      0.54s WALL (     693 calls)
     cegterg:upda :      0.47s CPU      0.50s WALL (     693 calls)
     cegterg:last :      0.66s CPU      0.16s WALL (     159 calls)

     Called by h_psi:
     h_psi:pot    :     20.42s CPU      9.98s WALL (     795 calls)
     h_psi:calbec :      0.67s CPU      0.27s WALL (     795 calls)
     vloc_psi     :     19.02s CPU      9.44s WALL (     795 calls)
     add_vuspsi   :      0.72s CPU      0.25s WALL (     795 calls)

     General routines
     calbec       :      0.59s CPU      0.26s WALL (     795 calls)
     fft          :      0.00s CPU      0.01s WALL (      13 calls)
     ffts         :      0.00s CPU      0.00s WALL (       1 calls)
     fftw         :     16.09s CPU      8.02s WALL (   18112 calls)
     interpolate  :      0.00s CPU      0.00s WALL (       1 calls)
     davcio       :      0.00s CPU      0.01s WALL (      50 calls)

     Parallel routines
     fft_scatter  :      1.72s CPU      0.76s WALL (   18126 calls)

     PWSCF        :    32.78s CPU        15.98s WALL


   This run was terminated on:  15:31:58  26Feb2021            

=------------------------------------------------------------------------------=
   JOB DONE.
=------------------------------------------------------------------------------=
