
     Program PWSCF v.6.0 (svn rev. 13079) starts on 25Feb2021 at 14:51:46 

     This program is part of the open-source Quantum ESPRESSO suite
     for quantum simulation of materials; please cite
         "P. Giannozzi et al., J. Phys.:Condens. Matter 21 395502 (2009);
          URL http://www.quantum-espresso.org", 
     in publications or presentations arising from this work. More details at
     http://www.quantum-espresso.org/quote

     Parallel version (MPI), running on     1 processors
     Reading input from espresso.pwi
Warning: card &IONS ignored
Warning: card / ignored
Warning: card &CELL ignored
Warning: card / ignored

     Current dimensions of program PWSCF are:
     Max number of different atomic species (ntypx) = 10
     Max number of k-points (npk) =  40000
     Max angular momentum in pseudopotentials (lmaxx) =  3
     Message from routine input:
     WARNING: "startingwfc" set to atomic+random may spoil restart

     Atomic positions and unit cell read from directory:
     ./pwscf.save/


     IMPORTANT: XC functional enforced from input :
     Exchange-correlation      = PBE ( 1  4  3  4 0 0)
     Any further DFT definition will be discarded
     Please, verify this is what you really want


     Subspace diagonalization in iterative solution of the eigenvalue problem:
     a serial algorithm will be used


     G-vector sticks info
     --------------------
     sticks:   dense  smooth     PW     G-vecs:    dense   smooth      PW
     Sum         467     367    129                 6339     4417     887



     bravais-lattice index     =            0
     lattice parameter (alat)  =       5.5250  a.u.
     unit-cell volume          =     129.8297 (a.u.)^3
     number of atoms/cell      =            1
     number of atomic types    =            1
     number of electrons       =        19.00
     number of Kohn-Sham states=           14
     kinetic-energy cutoff     =      40.0000  Ry
     charge density cutoff     =     200.0000  Ry
     Exchange-correlation      = PBE ( 1  4  3  4 0 0)

     celldm(1)=   5.524996  celldm(2)=   0.000000  celldm(3)=   0.000000
     celldm(4)=   0.000000  celldm(5)=   0.000000  celldm(6)=   0.000000

     crystal axes: (cart. coord. in units of alat)
               a(1) = (  -0.577350   0.577350   0.577350 )  
               a(2) = (   0.577350  -0.577350   0.577350 )  
               a(3) = (   0.577350   0.577350  -0.577350 )  

     reciprocal axes: (cart. coord. in units 2 pi/alat)
               b(1) = (  0.000000  0.866025  0.866025 )  
               b(2) = (  0.866025  0.000000  0.866025 )  
               b(3) = (  0.866025  0.866025  0.000000 )  


     PseudoPot. # 1 for Ga read from file:
     /home/inukai/tango/tests/1element/qe_fit_v2_Ga/../pseudo/ga_pbe_v1.4.uspp.F.UPF
     MD5 check sum: ccd671392a58a050fbb373893b4fcd66
     Pseudo is Ultrasoft + core correction, Zval = 19.0
     Generated by new atomic code, or converted to UPF format
     Using radial grid of  871 points,  6 beta functions with: 
                l(1) =   0
                l(2) =   0
                l(3) =   1
                l(4) =   1
                l(5) =   2
                l(6) =   2
     Q(r) pseudized with  8 coefficients,  rinner =    1.250   1.250   1.250
                                                       1.250   1.250

     atomic species   valence    mass     pseudopotential
        Ga            19.00    69.72300     Ga( 1.00)

     48 Sym. Ops., with inversion, found


                                    s                        frac. trans.

      isym =  1     identity                                     

 cryst.   s( 1) = (     1          0          0      )
                  (     0          1          0      )
                  (     0          0          1      )

 cart.    s( 1) = (  1.0000000  0.0000000  0.0000000 )
                  (  0.0000000  1.0000000  0.0000000 )
                  (  0.0000000  0.0000000  1.0000000 )


      isym =  2     180 deg rotation - cart. axis [0,0,1]        

 cryst.   s( 2) = (     0          1          0      )
                  (     1          0          0      )
                  (    -1         -1         -1      )

 cart.    s( 2) = ( -1.0000000  0.0000000  0.0000000 )
                  (  0.0000000 -1.0000000  0.0000000 )
                  (  0.0000000  0.0000000  1.0000000 )


      isym =  3     180 deg rotation - cart. axis [0,1,0]        

 cryst.   s( 3) = (     0          0          1      )
                  (    -1         -1         -1      )
                  (     1          0          0      )

 cart.    s( 3) = ( -1.0000000  0.0000000  0.0000000 )
                  (  0.0000000  1.0000000  0.0000000 )
                  (  0.0000000  0.0000000 -1.0000000 )


      isym =  4     180 deg rotation - cart. axis [1,0,0]        

 cryst.   s( 4) = (    -1         -1         -1      )
                  (     0          0          1      )
                  (     0          1          0      )

 cart.    s( 4) = (  1.0000000  0.0000000  0.0000000 )
                  (  0.0000000 -1.0000000  0.0000000 )
                  (  0.0000000  0.0000000 -1.0000000 )


      isym =  5     180 deg rotation - cart. axis [1,1,0]        

 cryst.   s( 5) = (    -1          0          0      )
                  (     0         -1          0      )
                  (     1          1          1      )

 cart.    s( 5) = (  0.0000000  1.0000000  0.0000000 )
                  (  1.0000000  0.0000000  0.0000000 )
                  (  0.0000000  0.0000000 -1.0000000 )


      isym =  6     180 deg rotation - cart. axis [1,-1,0]       

 cryst.   s( 6) = (     0         -1          0      )
                  (    -1          0          0      )
                  (     0          0         -1      )

 cart.    s( 6) = (  0.0000000 -1.0000000  0.0000000 )
                  ( -1.0000000  0.0000000  0.0000000 )
                  (  0.0000000  0.0000000 -1.0000000 )


      isym =  7      90 deg rotation - cart. axis [0,0,-1]       

 cryst.   s( 7) = (     1          1          1      )
                  (     0          0         -1      )
                  (    -1          0          0      )

 cart.    s( 7) = (  0.0000000  1.0000000  0.0000000 )
                  ( -1.0000000  0.0000000  0.0000000 )
                  (  0.0000000  0.0000000  1.0000000 )


      isym =  8      90 deg rotation - cart. axis [0,0,1]        

 cryst.   s( 8) = (     0          0         -1      )
                  (     1          1          1      )
                  (     0         -1          0      )

 cart.    s( 8) = (  0.0000000 -1.0000000  0.0000000 )
                  (  1.0000000  0.0000000  0.0000000 )
                  (  0.0000000  0.0000000  1.0000000 )


      isym =  9     180 deg rotation - cart. axis [1,0,1]        

 cryst.   s( 9) = (    -1          0          0      )
                  (     1          1          1      )
                  (     0          0         -1      )

 cart.    s( 9) = (  0.0000000  0.0000000  1.0000000 )
                  (  0.0000000 -1.0000000  0.0000000 )
                  (  1.0000000  0.0000000  0.0000000 )


      isym = 10     180 deg rotation - cart. axis [-1,0,1]       

 cryst.   s(10) = (     0          0         -1      )
                  (     0         -1          0      )
                  (    -1          0          0      )

 cart.    s(10) = (  0.0000000  0.0000000 -1.0000000 )
                  (  0.0000000 -1.0000000  0.0000000 )
                  ( -1.0000000  0.0000000  0.0000000 )


      isym = 11      90 deg rotation - cart. axis [0,1,0]        

 cryst.   s(11) = (     1          1          1      )
                  (    -1          0          0      )
                  (     0         -1          0      )

 cart.    s(11) = (  0.0000000  0.0000000  1.0000000 )
                  (  0.0000000  1.0000000  0.0000000 )
                  ( -1.0000000  0.0000000  0.0000000 )


      isym = 12      90 deg rotation - cart. axis [0,-1,0]       

 cryst.   s(12) = (     0         -1          0      )
                  (     0          0         -1      )
                  (     1          1          1      )

 cart.    s(12) = (  0.0000000  0.0000000 -1.0000000 )
                  (  0.0000000  1.0000000  0.0000000 )
                  (  1.0000000  0.0000000  0.0000000 )


      isym = 13     180 deg rotation - cart. axis [0,1,1]        

 cryst.   s(13) = (     1          1          1      )
                  (     0         -1          0      )
                  (     0          0         -1      )

 cart.    s(13) = ( -1.0000000  0.0000000  0.0000000 )
                  (  0.0000000  0.0000000  1.0000000 )
                  (  0.0000000  1.0000000  0.0000000 )


      isym = 14     180 deg rotation - cart. axis [0,1,-1]       

 cryst.   s(14) = (    -1          0          0      )
                  (     0          0         -1      )
                  (     0         -1          0      )

 cart.    s(14) = ( -1.0000000  0.0000000  0.0000000 )
                  (  0.0000000  0.0000000 -1.0000000 )
                  (  0.0000000 -1.0000000  0.0000000 )


      isym = 15      90 deg rotation - cart. axis [-1,0,0]       

 cryst.   s(15) = (     0         -1          0      )
                  (     1          1          1      )
                  (    -1          0          0      )

 cart.    s(15) = (  1.0000000  0.0000000  0.0000000 )
                  (  0.0000000  0.0000000  1.0000000 )
                  (  0.0000000 -1.0000000  0.0000000 )


      isym = 16      90 deg rotation - cart. axis [1,0,0]        

 cryst.   s(16) = (     0          0         -1      )
                  (    -1          0          0      )
                  (     1          1          1      )

 cart.    s(16) = (  1.0000000  0.0000000  0.0000000 )
                  (  0.0000000  0.0000000 -1.0000000 )
                  (  0.0000000  1.0000000  0.0000000 )


      isym = 17     120 deg rotation - cart. axis [-1,-1,-1]     

 cryst.   s(17) = (     0          0          1      )
                  (     1          0          0      )
                  (     0          1          0      )

 cart.    s(17) = (  0.0000000  1.0000000  0.0000000 )
                  (  0.0000000  0.0000000  1.0000000 )
                  (  1.0000000  0.0000000  0.0000000 )


      isym = 18     120 deg rotation - cart. axis [-1,1,1]       

 cryst.   s(18) = (     1          0          0      )
                  (     0          0          1      )
                  (    -1         -1         -1      )

 cart.    s(18) = (  0.0000000 -1.0000000  0.0000000 )
                  (  0.0000000  0.0000000  1.0000000 )
                  ( -1.0000000  0.0000000  0.0000000 )


      isym = 19     120 deg rotation - cart. axis [1,1,-1]       

 cryst.   s(19) = (     0          1          0      )
                  (    -1         -1         -1      )
                  (     0          0          1      )

 cart.    s(19) = (  0.0000000  1.0000000  0.0000000 )
                  (  0.0000000  0.0000000 -1.0000000 )
                  ( -1.0000000  0.0000000  0.0000000 )


      isym = 20     120 deg rotation - cart. axis [1,-1,1]       

 cryst.   s(20) = (    -1         -1         -1      )
                  (     0          1          0      )
                  (     1          0          0      )

 cart.    s(20) = (  0.0000000 -1.0000000  0.0000000 )
                  (  0.0000000  0.0000000 -1.0000000 )
                  (  1.0000000  0.0000000  0.0000000 )


      isym = 21     120 deg rotation - cart. axis [1,1,1]        

 cryst.   s(21) = (     0          1          0      )
                  (     0          0          1      )
                  (     1          0          0      )

 cart.    s(21) = (  0.0000000  0.0000000  1.0000000 )
                  (  1.0000000  0.0000000  0.0000000 )
                  (  0.0000000  1.0000000  0.0000000 )


      isym = 22     120 deg rotation - cart. axis [-1,1,-1]      

 cryst.   s(22) = (     0          0          1      )
                  (     0          1          0      )
                  (    -1         -1         -1      )

 cart.    s(22) = (  0.0000000  0.0000000  1.0000000 )
                  ( -1.0000000  0.0000000  0.0000000 )
                  (  0.0000000 -1.0000000  0.0000000 )


      isym = 23     120 deg rotation - cart. axis [1,-1,-1]      

 cryst.   s(23) = (     1          0          0      )
                  (    -1         -1         -1      )
                  (     0          1          0      )

 cart.    s(23) = (  0.0000000  0.0000000 -1.0000000 )
                  ( -1.0000000  0.0000000  0.0000000 )
                  (  0.0000000  1.0000000  0.0000000 )


      isym = 24     120 deg rotation - cart. axis [-1,-1,1]      

 cryst.   s(24) = (    -1         -1         -1      )
                  (     1          0          0      )
                  (     0          0          1      )

 cart.    s(24) = (  0.0000000  0.0000000 -1.0000000 )
                  (  1.0000000  0.0000000  0.0000000 )
                  (  0.0000000 -1.0000000  0.0000000 )


      isym = 25     inversion                                    

 cryst.   s(25) = (    -1          0          0      )
                  (     0         -1          0      )
                  (     0          0         -1      )

 cart.    s(25) = ( -1.0000000  0.0000000  0.0000000 )
                  (  0.0000000 -1.0000000  0.0000000 )
                  (  0.0000000  0.0000000 -1.0000000 )


      isym = 26     inv. 180 deg rotation - cart. axis [0,0,1]   

 cryst.   s(26) = (     0         -1          0      )
                  (    -1          0          0      )
                  (     1          1          1      )

 cart.    s(26) = (  1.0000000  0.0000000  0.0000000 )
                  (  0.0000000  1.0000000  0.0000000 )
                  (  0.0000000  0.0000000 -1.0000000 )


      isym = 27     inv. 180 deg rotation - cart. axis [0,1,0]   

 cryst.   s(27) = (     0          0         -1      )
                  (     1          1          1      )
                  (    -1          0          0      )

 cart.    s(27) = (  1.0000000  0.0000000  0.0000000 )
                  (  0.0000000 -1.0000000  0.0000000 )
                  (  0.0000000  0.0000000  1.0000000 )


      isym = 28     inv. 180 deg rotation - cart. axis [1,0,0]   

 cryst.   s(28) = (     1          1          1      )
                  (     0          0         -1      )
                  (     0         -1          0      )

 cart.    s(28) = ( -1.0000000  0.0000000  0.0000000 )
                  (  0.0000000  1.0000000  0.0000000 )
                  (  0.0000000  0.0000000  1.0000000 )


      isym = 29     inv. 180 deg rotation - cart. axis [1,1,0]   

 cryst.   s(29) = (     1          0          0      )
                  (     0          1          0      )
                  (    -1         -1         -1      )

 cart.    s(29) = (  0.0000000 -1.0000000  0.0000000 )
                  ( -1.0000000  0.0000000  0.0000000 )
                  (  0.0000000  0.0000000  1.0000000 )


      isym = 30     inv. 180 deg rotation - cart. axis [1,-1,0]  

 cryst.   s(30) = (     0          1          0      )
                  (     1          0          0      )
                  (     0          0          1      )

 cart.    s(30) = (  0.0000000  1.0000000  0.0000000 )
                  (  1.0000000  0.0000000  0.0000000 )
                  (  0.0000000  0.0000000  1.0000000 )


      isym = 31     inv.  90 deg rotation - cart. axis [0,0,-1]  

 cryst.   s(31) = (    -1         -1         -1      )
                  (     0          0          1      )
                  (     1          0          0      )

 cart.    s(31) = (  0.0000000 -1.0000000  0.0000000 )
                  (  1.0000000  0.0000000  0.0000000 )
                  (  0.0000000  0.0000000 -1.0000000 )


      isym = 32     inv.  90 deg rotation - cart. axis [0,0,1]   

 cryst.   s(32) = (     0          0          1      )
                  (    -1         -1         -1      )
                  (     0          1          0      )

 cart.    s(32) = (  0.0000000  1.0000000  0.0000000 )
                  ( -1.0000000  0.0000000  0.0000000 )
                  (  0.0000000  0.0000000 -1.0000000 )


      isym = 33     inv. 180 deg rotation - cart. axis [1,0,1]   

 cryst.   s(33) = (     1          0          0      )
                  (    -1         -1         -1      )
                  (     0          0          1      )

 cart.    s(33) = (  0.0000000  0.0000000 -1.0000000 )
                  (  0.0000000  1.0000000  0.0000000 )
                  ( -1.0000000  0.0000000  0.0000000 )


      isym = 34     inv. 180 deg rotation - cart. axis [-1,0,1]  

 cryst.   s(34) = (     0          0          1      )
                  (     0          1          0      )
                  (     1          0          0      )

 cart.    s(34) = (  0.0000000  0.0000000  1.0000000 )
                  (  0.0000000  1.0000000  0.0000000 )
                  (  1.0000000  0.0000000  0.0000000 )


      isym = 35     inv.  90 deg rotation - cart. axis [0,1,0]   

 cryst.   s(35) = (    -1         -1         -1      )
                  (     1          0          0      )
                  (     0          1          0      )

 cart.    s(35) = (  0.0000000  0.0000000 -1.0000000 )
                  (  0.0000000 -1.0000000  0.0000000 )
                  (  1.0000000  0.0000000  0.0000000 )


      isym = 36     inv.  90 deg rotation - cart. axis [0,-1,0]  

 cryst.   s(36) = (     0          1          0      )
                  (     0          0          1      )
                  (    -1         -1         -1      )

 cart.    s(36) = (  0.0000000  0.0000000  1.0000000 )
                  (  0.0000000 -1.0000000  0.0000000 )
                  ( -1.0000000  0.0000000  0.0000000 )


      isym = 37     inv. 180 deg rotation - cart. axis [0,1,1]   

 cryst.   s(37) = (    -1         -1         -1      )
                  (     0          1          0      )
                  (     0          0          1      )

 cart.    s(37) = (  1.0000000  0.0000000  0.0000000 )
                  (  0.0000000  0.0000000 -1.0000000 )
                  (  0.0000000 -1.0000000  0.0000000 )


      isym = 38     inv. 180 deg rotation - cart. axis [0,1,-1]  

 cryst.   s(38) = (     1          0          0      )
                  (     0          0          1      )
                  (     0          1          0      )

 cart.    s(38) = (  1.0000000  0.0000000  0.0000000 )
                  (  0.0000000  0.0000000  1.0000000 )
                  (  0.0000000  1.0000000  0.0000000 )


      isym = 39     inv.  90 deg rotation - cart. axis [-1,0,0]  

 cryst.   s(39) = (     0          1          0      )
                  (    -1         -1         -1      )
                  (     1          0          0      )

 cart.    s(39) = ( -1.0000000  0.0000000  0.0000000 )
                  (  0.0000000  0.0000000 -1.0000000 )
                  (  0.0000000  1.0000000  0.0000000 )


      isym = 40     inv.  90 deg rotation - cart. axis [1,0,0]   

 cryst.   s(40) = (     0          0          1      )
                  (     1          0          0      )
                  (    -1         -1         -1      )

 cart.    s(40) = ( -1.0000000  0.0000000  0.0000000 )
                  (  0.0000000  0.0000000  1.0000000 )
                  (  0.0000000 -1.0000000  0.0000000 )


      isym = 41     inv. 120 deg rotation - cart. axis [-1,-1,-1]

 cryst.   s(41) = (     0          0         -1      )
                  (    -1          0          0      )
                  (     0         -1          0      )

 cart.    s(41) = (  0.0000000 -1.0000000  0.0000000 )
                  (  0.0000000  0.0000000 -1.0000000 )
                  ( -1.0000000  0.0000000  0.0000000 )


      isym = 42     inv. 120 deg rotation - cart. axis [-1,1,1]  

 cryst.   s(42) = (    -1          0          0      )
                  (     0          0         -1      )
                  (     1          1          1      )

 cart.    s(42) = (  0.0000000  1.0000000  0.0000000 )
                  (  0.0000000  0.0000000 -1.0000000 )
                  (  1.0000000  0.0000000  0.0000000 )


      isym = 43     inv. 120 deg rotation - cart. axis [1,1,-1]  

 cryst.   s(43) = (     0         -1          0      )
                  (     1          1          1      )
                  (     0          0         -1      )

 cart.    s(43) = (  0.0000000 -1.0000000  0.0000000 )
                  (  0.0000000  0.0000000  1.0000000 )
                  (  1.0000000  0.0000000  0.0000000 )


      isym = 44     inv. 120 deg rotation - cart. axis [1,-1,1]  

 cryst.   s(44) = (     1          1          1      )
                  (     0         -1          0      )
                  (    -1          0          0      )

 cart.    s(44) = (  0.0000000  1.0000000  0.0000000 )
                  (  0.0000000  0.0000000  1.0000000 )
                  ( -1.0000000  0.0000000  0.0000000 )


      isym = 45     inv. 120 deg rotation - cart. axis [1,1,1]   

 cryst.   s(45) = (     0         -1          0      )
                  (     0          0         -1      )
                  (    -1          0          0      )

 cart.    s(45) = (  0.0000000  0.0000000 -1.0000000 )
                  ( -1.0000000  0.0000000  0.0000000 )
                  (  0.0000000 -1.0000000  0.0000000 )


      isym = 46     inv. 120 deg rotation - cart. axis [-1,1,-1] 

 cryst.   s(46) = (     0          0         -1      )
                  (     0         -1          0      )
                  (     1          1          1      )

 cart.    s(46) = (  0.0000000  0.0000000 -1.0000000 )
                  (  1.0000000  0.0000000  0.0000000 )
                  (  0.0000000  1.0000000  0.0000000 )


      isym = 47     inv. 120 deg rotation - cart. axis [1,-1,-1] 

 cryst.   s(47) = (    -1          0          0      )
                  (     1          1          1      )
                  (     0         -1          0      )

 cart.    s(47) = (  0.0000000  0.0000000  1.0000000 )
                  (  1.0000000  0.0000000  0.0000000 )
                  (  0.0000000 -1.0000000  0.0000000 )


      isym = 48     inv. 120 deg rotation - cart. axis [-1,-1,1] 

 cryst.   s(48) = (     1          1          1      )
                  (    -1          0          0      )
                  (     0          0         -1      )

 cart.    s(48) = (  0.0000000  0.0000000  1.0000000 )
                  ( -1.0000000  0.0000000  0.0000000 )
                  (  0.0000000  1.0000000  0.0000000 )


   Cartesian axes

     site n.     atom                  positions (alat units)
         1           Ga  tau(   1) = (   0.0000000   0.0000000   0.0000000  )

   Crystallographic axes

     site n.     atom                  positions (cryst. coord.)
         1           Ga  tau(   1) = (  0.0000000  0.0000000  0.0000000  )

     number of k points=    50  gaussian smearing, width (Ry)=  0.0010
                       cart. coord. in units 2pi/alat
        k(    1) = (   0.0000000   0.0000000   0.0000000), wk =   0.0400000
        k(    2) = (   0.0000000   0.0618590   0.0000000), wk =   0.0400000
        k(    3) = (   0.0000000   0.1237179   0.0000000), wk =   0.0400000
        k(    4) = (   0.0000000   0.1855769   0.0000000), wk =   0.0400000
        k(    5) = (   0.0000000   0.2474358   0.0000000), wk =   0.0400000
        k(    6) = (   0.0000000   0.3092948   0.0000000), wk =   0.0400000
        k(    7) = (   0.0000000   0.3711537   0.0000000), wk =   0.0400000
        k(    8) = (   0.0000000   0.4330127   0.0000000), wk =   0.0400000
        k(    9) = (   0.0000000   0.4948717   0.0000000), wk =   0.0400000
        k(   10) = (   0.0000000   0.5567306   0.0000000), wk =   0.0400000
        k(   11) = (   0.0000000   0.6185896   0.0000000), wk =   0.0400000
        k(   12) = (   0.0000000   0.6804485   0.0000000), wk =   0.0400000
        k(   13) = (   0.0000000   0.7423075   0.0000000), wk =   0.0400000
        k(   14) = (   0.0000000   0.8041664   0.0000000), wk =   0.0400000
        k(   15) = (   0.0000000   0.8660254   0.0000000), wk =   0.0400000
        k(   16) = (   0.0433013   0.8227241   0.0000000), wk =   0.0400000
        k(   17) = (   0.0866025   0.7794229   0.0000000), wk =   0.0400000
        k(   18) = (   0.1299038   0.7361216   0.0000000), wk =   0.0400000
        k(   19) = (   0.1732051   0.6928203   0.0000000), wk =   0.0400000
        k(   20) = (   0.2165064   0.6495191   0.0000000), wk =   0.0400000
        k(   21) = (   0.2598076   0.6062178   0.0000000), wk =   0.0400000
        k(   22) = (   0.3031089   0.5629165   0.0000000), wk =   0.0400000
        k(   23) = (   0.3464102   0.5196152   0.0000000), wk =   0.0400000
        k(   24) = (   0.3897114   0.4763140   0.0000000), wk =   0.0400000
        k(   25) = (   0.4330127   0.4330127   0.0000000), wk =   0.0400000
        k(   26) = (   0.3936479   0.3936479   0.0000000), wk =   0.0400000
        k(   27) = (   0.3542831   0.3542831   0.0000000), wk =   0.0400000
        k(   28) = (   0.3149183   0.3149183   0.0000000), wk =   0.0400000
        k(   29) = (   0.2755535   0.2755535   0.0000000), wk =   0.0400000
        k(   30) = (   0.2361887   0.2361887   0.0000000), wk =   0.0400000
        k(   31) = (   0.1968240   0.1968240   0.0000000), wk =   0.0400000
        k(   32) = (   0.1574592   0.1574592   0.0000000), wk =   0.0400000
        k(   33) = (   0.1180944   0.1180944   0.0000000), wk =   0.0400000
        k(   34) = (   0.0787296   0.0787296   0.0000000), wk =   0.0400000
        k(   35) = (   0.0393648   0.0393648   0.0000000), wk =   0.0400000
        k(   36) = (   0.0000000   0.0000000   0.0000000), wk =   0.0400000
        k(   37) = (   0.0309295   0.0309295   0.0309295), wk =   0.0400000
        k(   38) = (   0.0618590   0.0618590   0.0618590), wk =   0.0400000
        k(   39) = (   0.0927884   0.0927884   0.0927884), wk =   0.0400000
        k(   40) = (   0.1237179   0.1237179   0.1237179), wk =   0.0400000
        k(   41) = (   0.1546474   0.1546474   0.1546474), wk =   0.0400000
        k(   42) = (   0.1855769   0.1855769   0.1855769), wk =   0.0400000
        k(   43) = (   0.2165064   0.2165064   0.2165064), wk =   0.0400000
        k(   44) = (   0.2474358   0.2474358   0.2474358), wk =   0.0400000
        k(   45) = (   0.2783653   0.2783653   0.2783653), wk =   0.0400000
        k(   46) = (   0.3092948   0.3092948   0.3092948), wk =   0.0400000
        k(   47) = (   0.3402243   0.3402243   0.3402243), wk =   0.0400000
        k(   48) = (   0.3711537   0.3711537   0.3711537), wk =   0.0400000
        k(   49) = (   0.4020832   0.4020832   0.4020832), wk =   0.0400000
        k(   50) = (   0.4330127   0.4330127   0.4330127), wk =   0.0400000

                       cryst. coord.
        k(    1) = (   0.0000000   0.0000000   0.0000000), wk =   0.0400000
        k(    2) = (   0.0357143  -0.0357143   0.0357143), wk =   0.0400000
        k(    3) = (   0.0714286  -0.0714286   0.0714286), wk =   0.0400000
        k(    4) = (   0.1071429  -0.1071429   0.1071429), wk =   0.0400000
        k(    5) = (   0.1428571  -0.1428571   0.1428571), wk =   0.0400000
        k(    6) = (   0.1785714  -0.1785714   0.1785714), wk =   0.0400000
        k(    7) = (   0.2142857  -0.2142857   0.2142857), wk =   0.0400000
        k(    8) = (   0.2500000  -0.2500000   0.2500000), wk =   0.0400000
        k(    9) = (   0.2857143  -0.2857143   0.2857143), wk =   0.0400000
        k(   10) = (   0.3214286  -0.3214286   0.3214286), wk =   0.0400000
        k(   11) = (   0.3571429  -0.3571429   0.3571429), wk =   0.0400000
        k(   12) = (   0.3928571  -0.3928571   0.3928571), wk =   0.0400000
        k(   13) = (   0.4285714  -0.4285714   0.4285714), wk =   0.0400000
        k(   14) = (   0.4642857  -0.4642857   0.4642857), wk =   0.0400000
        k(   15) = (   0.5000000  -0.5000000   0.5000000), wk =   0.0400000
        k(   16) = (   0.4500000  -0.4500000   0.5000000), wk =   0.0400000
        k(   17) = (   0.4000000  -0.4000000   0.5000000), wk =   0.0400000
        k(   18) = (   0.3500000  -0.3500000   0.5000000), wk =   0.0400000
        k(   19) = (   0.3000000  -0.3000000   0.5000000), wk =   0.0400000
        k(   20) = (   0.2500000  -0.2500000   0.5000000), wk =   0.0400000
        k(   21) = (   0.2000000  -0.2000000   0.5000000), wk =   0.0400000
        k(   22) = (   0.1500000  -0.1500000   0.5000000), wk =   0.0400000
        k(   23) = (   0.1000000  -0.1000000   0.5000000), wk =   0.0400000
        k(   24) = (   0.0500000  -0.0500000   0.5000000), wk =   0.0400000
        k(   25) = (   0.0000000   0.0000000   0.5000000), wk =   0.0400000
        k(   26) = (   0.0000000   0.0000000   0.4545455), wk =   0.0400000
        k(   27) = (   0.0000000   0.0000000   0.4090909), wk =   0.0400000
        k(   28) = (   0.0000000   0.0000000   0.3636364), wk =   0.0400000
        k(   29) = (   0.0000000   0.0000000   0.3181818), wk =   0.0400000
        k(   30) = (   0.0000000   0.0000000   0.2727273), wk =   0.0400000
        k(   31) = (   0.0000000   0.0000000   0.2272727), wk =   0.0400000
        k(   32) = (   0.0000000   0.0000000   0.1818182), wk =   0.0400000
        k(   33) = (   0.0000000   0.0000000   0.1363636), wk =   0.0400000
        k(   34) = (   0.0000000   0.0000000   0.0909091), wk =   0.0400000
        k(   35) = (   0.0000000   0.0000000   0.0454545), wk =   0.0400000
        k(   36) = (   0.0000000   0.0000000   0.0000000), wk =   0.0400000
        k(   37) = (   0.0178571   0.0178571   0.0178571), wk =   0.0400000
        k(   38) = (   0.0357143   0.0357143   0.0357143), wk =   0.0400000
        k(   39) = (   0.0535714   0.0535714   0.0535714), wk =   0.0400000
        k(   40) = (   0.0714286   0.0714286   0.0714286), wk =   0.0400000
        k(   41) = (   0.0892857   0.0892857   0.0892857), wk =   0.0400000
        k(   42) = (   0.1071429   0.1071429   0.1071429), wk =   0.0400000
        k(   43) = (   0.1250000   0.1250000   0.1250000), wk =   0.0400000
        k(   44) = (   0.1428571   0.1428571   0.1428571), wk =   0.0400000
        k(   45) = (   0.1607143   0.1607143   0.1607143), wk =   0.0400000
        k(   46) = (   0.1785714   0.1785714   0.1785714), wk =   0.0400000
        k(   47) = (   0.1964286   0.1964286   0.1964286), wk =   0.0400000
        k(   48) = (   0.2142857   0.2142857   0.2142857), wk =   0.0400000
        k(   49) = (   0.2321429   0.2321429   0.2321429), wk =   0.0400000
        k(   50) = (   0.2500000   0.2500000   0.2500000), wk =   0.0400000

     Dense  grid:     6339 G-vectors     FFT dimensions: (  25,  25,  25)

     Smooth grid:     4417 G-vectors     FFT dimensions: (  24,  24,  24)

     Estimated max dynamical RAM per process >       9.08Mb

     Check: negative/imaginary core charge=   -0.000002    0.000000

     The potential is recalculated from file :
     ./pwscf.save/charge-density.dat

     Starting wfc are   12 randomized atomic wfcs +    2 random wfc

     Band Structure Calculation
     Davidson diagonalization with overlap

     Computing kpt #:     1
     total cpu time spent up to now is        0.8 secs

     Computing kpt #:     2
     total cpu time spent up to now is        1.0 secs

     Computing kpt #:     3
     total cpu time spent up to now is        1.2 secs

     Computing kpt #:     4
     total cpu time spent up to now is        1.3 secs

     Computing kpt #:     5
     total cpu time spent up to now is        1.5 secs

     Computing kpt #:     6
     total cpu time spent up to now is        1.7 secs

     Computing kpt #:     7
     total cpu time spent up to now is        1.8 secs

     Computing kpt #:     8
     total cpu time spent up to now is        2.0 secs

     Computing kpt #:     9
     total cpu time spent up to now is        2.2 secs

     Computing kpt #:    10
     total cpu time spent up to now is        2.4 secs

     Computing kpt #:    11
     total cpu time spent up to now is        2.5 secs

     Computing kpt #:    12
     total cpu time spent up to now is        2.7 secs

     Computing kpt #:    13
     total cpu time spent up to now is        2.8 secs

     Computing kpt #:    14
     total cpu time spent up to now is        3.0 secs

     Computing kpt #:    15
     total cpu time spent up to now is        3.1 secs

     Computing kpt #:    16
     total cpu time spent up to now is        3.2 secs

     Computing kpt #:    17
     total cpu time spent up to now is        3.4 secs

     Computing kpt #:    18
     total cpu time spent up to now is        3.5 secs

     Computing kpt #:    19
     total cpu time spent up to now is        3.7 secs

     Computing kpt #:    20
     total cpu time spent up to now is        3.9 secs

     Computing kpt #:    21
     total cpu time spent up to now is        4.0 secs

     Computing kpt #:    22
     total cpu time spent up to now is        4.2 secs

     Computing kpt #:    23
     total cpu time spent up to now is        4.4 secs

     Computing kpt #:    24
     total cpu time spent up to now is        4.5 secs

     Computing kpt #:    25
     total cpu time spent up to now is        4.7 secs

     Computing kpt #:    26
     total cpu time spent up to now is        4.8 secs

     Computing kpt #:    27
     total cpu time spent up to now is        5.0 secs

     Computing kpt #:    28
     total cpu time spent up to now is        5.2 secs

     Computing kpt #:    29
     total cpu time spent up to now is        5.3 secs

     Computing kpt #:    30
     total cpu time spent up to now is        5.5 secs

     Computing kpt #:    31
     total cpu time spent up to now is        5.7 secs

     Computing kpt #:    32
     total cpu time spent up to now is        5.8 secs

     Computing kpt #:    33
     total cpu time spent up to now is        6.0 secs

     Computing kpt #:    34
     total cpu time spent up to now is        6.2 secs

     Computing kpt #:    35
     total cpu time spent up to now is        6.4 secs

     Computing kpt #:    36
     total cpu time spent up to now is        6.6 secs

     Computing kpt #:    37
     total cpu time spent up to now is        6.9 secs

     Computing kpt #:    38
     total cpu time spent up to now is        7.2 secs

     Computing kpt #:    39
     total cpu time spent up to now is        7.4 secs

     Computing kpt #:    40
     total cpu time spent up to now is        7.6 secs

     Computing kpt #:    41
     total cpu time spent up to now is        7.9 secs

     Computing kpt #:    42
     total cpu time spent up to now is        8.1 secs

     Computing kpt #:    43
     total cpu time spent up to now is        8.3 secs

     Computing kpt #:    44
     total cpu time spent up to now is        8.5 secs

     Computing kpt #:    45
     total cpu time spent up to now is        8.7 secs

     Computing kpt #:    46
     total cpu time spent up to now is        8.8 secs

     Computing kpt #:    47
     total cpu time spent up to now is        9.0 secs

     Computing kpt #:    48
     total cpu time spent up to now is        9.3 secs

     Computing kpt #:    49
     total cpu time spent up to now is        9.5 secs

     Computing kpt #:    50
     total cpu time spent up to now is        9.6 secs

     ethr =  5.26E-10,  avg # of iterations = 11.0

     total cpu time spent up to now is        9.6 secs

     End of band structure calculation

          k = 0.0000 0.0000 0.0000 (   555 PWs)   bands (ev):

   -83.5676 -83.5676 -83.5676  -4.0146  -4.0146  -4.0146  -3.8356  -3.8356
    -0.0441  23.2217  23.2217  23.2217  27.6395  27.6395

          k = 0.0000 0.0619 0.0000 (   555 PWs)   bands (ev):

   -83.5677 -83.5677 -83.5677  -4.0130  -4.0130  -4.0112  -3.8388  -3.8347
     0.0244  22.8187  22.8441  22.8441  27.0214  27.1302

          k = 0.0000 0.1237 0.0000 (   567 PWs)   bands (ev):

   -83.5681 -83.5681 -83.5681  -4.0081  -4.0081  -4.0012  -3.8481  -3.8328
     0.2302  21.8582  21.8848  21.8848  25.4532  26.9282

          k = 0.0000 0.1856 0.0000 (   567 PWs)   bands (ev):

   -83.5683 -83.5682 -83.5682  -3.9993  -3.9993  -3.9851  -3.8632  -3.8324
     0.5744  20.6716  20.6716  20.6910  24.0071  27.1089

          k = 0.0000 0.2474 0.0000 (   567 PWs)   bands (ev):

   -83.5685 -83.5685 -83.5685  -3.9862  -3.9862  -3.9637  -3.8835  -3.8365
     1.0580  19.4117  19.4117  19.5026  22.6923  27.5386

          k = 0.0000 0.3093 0.0000 (   555 PWs)   bands (ev):

   -83.5685 -83.5685 -83.5683  -3.9684  -3.9684  -3.9383  -3.9082  -3.8477
     1.6812  18.1950  18.1950  18.3750  21.5098  28.1562

          k = 0.0000 0.3712 0.0000 (   562 PWs)   bands (ev):

   -83.5690 -83.5688 -83.5688  -3.9458  -3.9458  -3.9363  -3.9101  -3.8675
     2.4429  17.0609  17.0609  17.3458  20.4589  28.9350

          k = 0.0000 0.4330 0.0000 (   554 PWs)   bands (ev):

   -83.5691 -83.5689 -83.5689  -3.9665  -3.9187  -3.9187  -3.8960  -3.8805
     3.3408  16.0298  16.0298  16.4323  19.5381  29.8616

          k = 0.0000 0.4949 0.0000 (   562 PWs)   bands (ev):

   -83.5695 -83.5695 -83.5693  -3.9972  -3.9318  -3.8880  -3.8880  -3.8513
     4.3709  15.1140  15.1140  15.6414  18.7459  27.6622

          k = 0.0000 0.5567 0.0000 (   554 PWs)   bands (ev):

   -83.5696 -83.5696 -83.5693  -4.0270  -3.9721  -3.8554  -3.8554  -3.8236
     5.5276  14.3230  14.3230  14.9726  18.0801  25.2129

          k = 0.0000 0.6186 0.0000 (   546 PWs)   bands (ev):

   -83.5696 -83.5696 -83.5694  -4.0542  -4.0135  -3.8231  -3.8231  -3.7989
     6.8017  13.6641  13.6641  14.4195  17.5389  22.8656

          k = 0.0000 0.6804 0.0000 (   546 PWs)   bands (ev):

   -83.5698 -83.5698 -83.5696  -4.0773  -4.0517  -3.7940  -3.7940  -3.7784
     8.1770  13.1439  13.1439  13.9658  17.1202  20.6759

          k = 0.0000 0.7423 0.0000 (   542 PWs)   bands (ev):

   -83.5699 -83.5699 -83.5696  -4.0948  -4.0825  -3.7706  -3.7706  -3.7630
     9.6206  12.7679  12.7679  13.5700  16.8225  18.7231

          k = 0.0000 0.8042 0.0000 (   550 PWs)   bands (ev):

   -83.5703 -83.5703 -83.5698  -4.1059  -4.1026  -3.7554  -3.7554  -3.7535
    11.0515  12.5404  12.5404  13.1128  16.6444  17.2072

          k = 0.0000 0.8660 0.0000 (   586 PWs)   bands (ev):

   -83.5712 -83.5712 -83.5712  -4.1098  -4.1098  -3.7504  -3.7504  -3.7504
    12.1414  12.4641  12.4641  12.4641  16.5852  16.5852

          k = 0.0433 0.8227 0.0000 (   550 PWs)   bands (ev):

   -83.5704 -83.5703 -83.5697  -4.1052  -4.1035  -3.7591  -3.7554  -3.7496
    11.2304  12.1190  12.5388  13.3550  16.7961  17.0494

          k = 0.0866 0.7794 0.0000 (   550 PWs)   bands (ev):

   -83.5704 -83.5702 -83.5695  -4.0926  -4.0858  -3.7849  -3.7702  -3.7477
    10.2335  11.3619  12.7611  14.2560  17.4623  18.1638

          k = 0.1299 0.7361 0.0000 (   544 PWs)   bands (ev):

   -83.5700 -83.5697 -83.5693  -4.0740  -4.0576  -3.8247  -3.7928  -3.7446
     9.3289  10.5123  13.1270  14.9826  18.5838  19.6109

          k = 0.1732 0.6928 0.0000 (   546 PWs)   bands (ev):

   -83.5701 -83.5696 -83.5690  -4.0532  -4.0212  -3.8740  -3.8194  -3.7408
     8.5378   9.6996  13.6292  15.6164  20.0433  21.2643

          k = 0.2165 0.6495 0.0000 (   552 PWs)   bands (ev):

   -83.5702 -83.5694 -83.5690  -4.0361  -3.9796  -3.9277  -3.8443  -3.7365
     7.8685   8.9735  14.2576  16.2557  21.6955  23.0778

          k = 0.2598 0.6062 0.0000 (   554 PWs)   bands (ev):

   -83.5702 -83.5693 -83.5686  -4.0299  -3.9805  -3.9365  -3.8594  -3.7323
     7.3240   8.3576  14.9969  16.9534  23.3522  25.0327

          k = 0.3031 0.5629 0.0000 (   554 PWs)   bands (ev):

   -83.5700 -83.5693 -83.5683  -4.0372  -4.0273  -3.8963  -3.8610  -3.7285
     6.9039   7.8658  15.8213  17.7268  24.3700  25.1314

          k = 0.3464 0.5196 0.0000 (   548 PWs)   bands (ev):

   -83.5700 -83.5692 -83.5676  -4.0639  -4.0517  -3.8634  -3.8544  -3.7255
     6.6062   7.5076  16.6773  18.5619  23.6894  23.8709

          k = 0.3897 0.4763 0.0000 (   548 PWs)   bands (ev):

   -83.5700 -83.5691 -83.5674  -4.0872  -4.0640  -3.8474  -3.8419  -3.7235
     6.4287   7.2899  17.4307  19.3708  22.5857  22.9102

          k = 0.4330 0.4330 0.0000 (   546 PWs)   bands (ev):

   -83.5700 -83.5690 -83.5672  -4.0951  -4.0687  -3.8446  -3.8344  -3.7228
     6.3698   7.2169  17.7689  19.7927  22.1309  22.4098

          k = 0.3936 0.3936 0.0000 (   553 PWs)   bands (ev):

   -83.5701 -83.5691 -83.5674  -4.0935  -4.0658  -3.8458  -3.8345  -3.7290
     5.5417   8.1508  17.8320  19.8431  22.1780  22.4506

          k = 0.3543 0.3543 0.0000 (   553 PWs)   bands (ev):

   -83.5700 -83.5690 -83.5675  -4.0888  -4.0573  -3.8489  -3.8346  -3.7469
     4.5036   9.5062  18.0206  19.9931  22.3195  22.5735

          k = 0.3149 0.3149 0.0000 (   553 PWs)   bands (ev):

   -83.5700 -83.5688 -83.5673  -4.0813  -4.0447  -3.8533  -3.8349  -3.7749
     3.5532  10.9837  18.3318  20.2392  22.5557  22.7793

          k = 0.2756 0.2756 0.0000 (   549 PWs)   bands (ev):

   -83.5695 -83.5686 -83.5672  -4.0716  -4.0304  -3.8577  -3.8351  -3.8105
     2.7089  12.5620  18.7609  20.5748  22.8875  23.0694

          k = 0.2362 0.2362 0.0000 (   555 PWs)   bands (ev):

   -83.5692 -83.5686 -83.5674  -4.0607  -4.0174  -3.8605  -3.8509  -3.8353
     1.9756  14.2306  19.3011  20.9889  23.3159  23.4454

          k = 0.1968 0.1968 0.0000 (   559 PWs)   bands (ev):

   -83.5688 -83.5687 -83.5675  -4.0492  -4.0086  -3.8924  -3.8599  -3.8355
     1.3553  15.9768  19.9424  21.4632  23.8418  23.9093

          k = 0.1575 0.1575 0.0000 (   571 PWs)   bands (ev):

   -83.5691 -83.5687 -83.5677  -4.0383  -4.0054  -3.9318  -3.8554  -3.8357
     0.8491  17.7790  20.6701  21.9677  24.4641  24.4663

          k = 0.1181 0.1181 0.0000 (   569 PWs)   bands (ev):

   -83.5685 -83.5685 -83.5678  -4.0286  -4.0067  -3.9660  -3.8487  -3.8357
     0.4569  19.5925  21.4581  22.4557  25.1179  25.1897

          k = 0.0787 0.0787 0.0000 (   565 PWs)   bands (ev):

   -83.5683 -83.5681 -83.5677  -4.0210  -4.0102  -3.9924  -3.8420  -3.8357
     0.1780  21.3106  22.2532  22.8638  25.8977  26.0105

          k = 0.0394 0.0394 0.0000 (   559 PWs)   bands (ev):

   -83.5680 -83.5677 -83.5676  -4.0162  -4.0134  -4.0089  -3.8373  -3.8356
     0.0114  22.6734  22.9291  23.1304  26.8648  26.9148

          k = 0.0000 0.0000 0.0000 (   555 PWs)   bands (ev):

   -83.5676 -83.5676 -83.5676  -4.0146  -4.0146  -4.0146  -3.8356  -3.8356
    -0.0441  23.2217  23.2217  23.2217  27.6395  27.6395

          k = 0.0309 0.0309 0.0309 (   555 PWs)   bands (ev):

   -83.5677 -83.5676 -83.5676  -4.0152  -4.0152  -4.0085  -3.8364  -3.8364
     0.0073  22.6810  23.0568  23.0568  26.9038  26.9038

          k = 0.0619 0.0619 0.0619 (   567 PWs)   bands (ev):

   -83.5685 -83.5678 -83.5678  -4.0172  -4.0172  -3.9910  -3.8385  -3.8385
     0.1616  21.4885  22.4842  22.4842  26.1799  26.1799

          k = 0.0928 0.0928 0.0928 (   561 PWs)   bands (ev):

   -83.5686 -83.5677 -83.5677  -4.0203  -4.0203  -3.9646  -3.8412  -3.8412
     0.4199  20.0994  21.4996  21.4996  25.9712  25.9712

          k = 0.1237 0.1237 0.1237 (   564 PWs)   bands (ev):

   -83.5691 -83.5678 -83.5678  -4.0247  -4.0247  -3.9330  -3.8437  -3.8437
     0.7832  18.6856  20.3026  20.3026  26.1404  26.1404

          k = 0.1546 0.1546 0.1546 (   552 PWs)   bands (ev):

   -83.5690 -83.5676 -83.5676  -4.0297  -4.0297  -3.9000  -3.8453  -3.8453
     1.2522  17.3127  19.0560  19.0560  26.5421  26.5421

          k = 0.1856 0.1856 0.1856 (   549 PWs)   bands (ev):

   -83.5692 -83.5677 -83.5677  -4.0347  -4.0347  -3.8700  -3.8457  -3.8457
     1.8270  16.0113  17.8344  17.8344  27.1070  27.1070

          k = 0.2165 0.2165 0.2165 (   567 PWs)   bands (ev):

   -83.5701 -83.5683 -83.5683  -4.0385  -4.0385  -3.8465  -3.8449  -3.8449
     2.5065  14.7986  16.6700  16.6700  27.8038  27.8038

          k = 0.2474 0.2474 0.2474 (   552 PWs)   bands (ev):

   -83.5697 -83.5680 -83.5680  -4.0395  -4.0395  -3.8430  -3.8430  -3.8322
     3.2884  13.6861  15.5781  15.5781  28.6156  28.6156

          k = 0.2784 0.2784 0.2784 (   559 PWs)   bands (ev):

   -83.5701 -83.5683 -83.5683  -4.0371  -4.0371  -3.8406  -3.8406  -3.8292
     4.1686  12.6827  14.5669  14.5669  29.5307  29.5307

          k = 0.3093 0.3093 0.3093 (   547 PWs)   bands (ev):

   -83.5697 -83.5681 -83.5681  -4.0303  -4.0303  -3.8380  -3.8380  -3.8380
     5.1396  11.7982  13.6417  13.6417  30.5388  30.5388

          k = 0.3402 0.3402 0.3402 (   553 PWs)   bands (ev):

   -83.5700 -83.5683 -83.5683  -4.0190  -4.0190  -3.8585  -3.8357  -3.8357
     6.1846  11.0489  12.8059  12.8059  31.6270  31.6270

          k = 0.3712 0.3712 0.3712 (   541 PWs)   bands (ev):

   -83.5692 -83.5682 -83.5682  -4.0037  -4.0037  -3.8886  -3.8338  -3.8338
     7.2560  10.4806  12.0626  12.0626  32.7722  32.7722

          k = 0.4021 0.4021 0.4021 (   541 PWs)   bands (ev):

   -83.5688 -83.5684 -83.5684  -3.9854  -3.9854  -3.9256  -3.8328  -3.8328
     8.1675  10.2755  11.4146  11.4146  33.9127  33.9127

          k = 0.4330 0.4330 0.4330 (   544 PWs)   bands (ev):

   -83.5686 -83.5686 -83.5686  -3.9656  -3.9656  -3.9656  -3.8324  -3.8324
     8.4834  10.8642  10.8642  10.8642  34.8125  34.8125

     Writing output data file pwscf.save

     init_run     :      0.66s CPU      0.45s WALL (       1 calls)
     electrons    :     15.67s CPU      9.06s WALL (       1 calls)

     Called by init_run:
     wfcinit      :      0.00s CPU      0.00s WALL (       1 calls)
     wfcinit:atom :      0.00s CPU      0.02s WALL (      50 calls)
     wfcinit:wfcr :      1.61s CPU      0.82s WALL (      50 calls)
     potinit      :      0.02s CPU      0.02s WALL (       1 calls)

     Called by electrons:
     c_bands      :     15.67s CPU      9.06s WALL (       1 calls)
     v_of_rho     :      0.00s CPU      0.01s WALL (       1 calls)
     v_h          :      0.00s CPU      0.00s WALL (       1 calls)
     v_xc         :      0.00s CPU      0.01s WALL (       1 calls)
     newd         :      0.00s CPU      0.04s WALL (       1 calls)

     Called by c_bands:
     init_us_2    :      0.03s CPU      0.03s WALL (      50 calls)
     cegterg      :     13.86s CPU      8.09s WALL (      51 calls)

     Called by sum_band:

     Called by *egterg:
     h_psi        :     11.28s CPU      6.23s WALL (     649 calls)
     s_psi        :      0.22s CPU      0.08s WALL (     649 calls)
     g_psi        :      0.05s CPU      0.03s WALL (     548 calls)
     cdiaghg      :      2.31s CPU      1.81s WALL (     598 calls)
     cegterg:over :      0.55s CPU      0.26s WALL (     548 calls)
     cegterg:upda :      0.42s CPU      0.22s WALL (     548 calls)
     cegterg:last :      0.34s CPU      0.12s WALL (     117 calls)

     Called by h_psi:
     h_psi:pot    :     11.25s CPU      6.20s WALL (     649 calls)
     h_psi:calbec :      0.17s CPU      0.11s WALL (     649 calls)
     vloc_psi     :     10.91s CPU      5.98s WALL (     649 calls)
     add_vuspsi   :      0.16s CPU      0.09s WALL (     649 calls)

     General routines
     calbec       :      0.17s CPU      0.10s WALL (     649 calls)
     fft          :      0.00s CPU      0.00s WALL (      13 calls)
     ffts         :      0.02s CPU      0.01s WALL (       1 calls)
     fftw         :     10.00s CPU      5.50s WALL (   11076 calls)
     interpolate  :      0.02s CPU      0.01s WALL (       1 calls)
     davcio       :      0.00s CPU      0.01s WALL (      50 calls)

     Parallel routines
     fft_scatter  :      0.41s CPU      0.28s WALL (   11090 calls)

     PWSCF        :    16.81s CPU         9.97s WALL


   This run was terminated on:  14:51:56  25Feb2021            

=------------------------------------------------------------------------------=
   JOB DONE.
=------------------------------------------------------------------------------=
