
     Program PWSCF v.6.0 (svn rev. 13079) starts on 26Feb2021 at 11:31:44 

     This program is part of the open-source Quantum ESPRESSO suite
     for quantum simulation of materials; please cite
         "P. Giannozzi et al., J. Phys.:Condens. Matter 21 395502 (2009);
          URL http://www.quantum-espresso.org", 
     in publications or presentations arising from this work. More details at
     http://www.quantum-espresso.org/quote

     Parallel version (MPI), running on     1 processors
     Reading input from espresso.pwi
Warning: card &IONS ignored
Warning: card / ignored
Warning: card &CELL ignored
Warning: card / ignored

     Current dimensions of program PWSCF are:
     Max number of different atomic species (ntypx) = 10
     Max number of k-points (npk) =  40000
     Max angular momentum in pseudopotentials (lmaxx) =  3
     Message from routine input:
     WARNING: "startingwfc" set to atomic+random may spoil restart

     Atomic positions and unit cell read from directory:
     ./pwscf.save/


     IMPORTANT: XC functional enforced from input :
     Exchange-correlation      = PBE ( 1  4  3  4 0 0)
     Any further DFT definition will be discarded
     Please, verify this is what you really want


     Subspace diagonalization in iterative solution of the eigenvalue problem:
     a serial algorithm will be used


     G-vector sticks info
     --------------------
     sticks:   dense  smooth     PW     G-vecs:    dense   smooth      PW
     Sum         313     253     85                 7055     5071     989



     bravais-lattice index     =            0
     lattice parameter (alat)  =       4.7183  a.u.
     unit-cell volume          =     146.8542 (a.u.)^3
     number of atoms/cell      =            2
     number of atomic types    =            1
     number of electrons       =        34.00
     number of Kohn-Sham states=           21
     kinetic-energy cutoff     =      40.0000  Ry
     charge density cutoff     =     200.0000  Ry
     Exchange-correlation      = PBE ( 1  4  3  4 0 0)

     celldm(1)=   4.718266  celldm(2)=   0.000000  celldm(3)=   0.000000
     celldm(4)=   0.000000  celldm(5)=   0.000000  celldm(6)=   0.000000

     crystal axes: (cart. coord. in units of alat)
               a(1) = (   1.000000   0.000000   0.000000 )  
               a(2) = (  -0.500000   0.866025   0.000000 )  
               a(3) = (   0.000000   0.000000   1.614390 )  

     reciprocal axes: (cart. coord. in units 2 pi/alat)
               b(1) = (  1.000000  0.577350 -0.000000 )  
               b(2) = (  0.000000  1.154701  0.000000 )  
               b(3) = (  0.000000 -0.000000  0.619429 )  


     PseudoPot. # 1 for Co read from file:
     /home/inukai/tango/tests/1element/qe_fit_v3_Co/../pseudo/co_pbe_v1.2.uspp.F.UPF
     MD5 check sum: 5f91765df6ddd3222702df6e7b74a16d
     Pseudo is Ultrasoft + core correction, Zval = 17.0
     Generated by new atomic code, or converted to UPF format
     Using radial grid of  863 points,  6 beta functions with: 
                l(1) =   0
                l(2) =   0
                l(3) =   1
                l(4) =   1
                l(5) =   2
                l(6) =   2
     Q(r) pseudized with  8 coefficients,  rinner =    1.200   1.200   1.200
                                                       1.200   1.200

     atomic species   valence    mass     pseudopotential
        Co            17.00    58.93319     Co( 1.00)

     24 Sym. Ops., with inversion, found (12 have fractional translation)


                                    s                        frac. trans.

      isym =  1     identity                                     

 cryst.   s( 1) = (     1          0          0      )
                  (     0          1          0      )
                  (     0          0          1      )

 cart.    s( 1) = (  1.0000000  0.0000000  0.0000000 )
                  (  0.0000000  1.0000000  0.0000000 )
                  (  0.0000000  0.0000000  1.0000000 )


      isym =  2     180 deg rotation - cart. axis [0,0,1]        

 cryst.   s( 2) = (    -1          0          0      )    f =(  0.0000000 )
                  (     0         -1          0      )       (  0.0000000 )
                  (     0          0          1      )       (  0.5000000 )

 cart.    s( 2) = ( -1.0000000  0.0000000  0.0000000 )    f =(  0.0000000 )
                  (  0.0000000 -1.0000000  0.0000000 )       (  0.0000000 )
                  (  0.0000000  0.0000000  1.0000000 )       (  0.8071951 )


      isym =  3     180 deg rotation - cart. axis [0,1,0]        

 cryst.   s( 3) = (    -1          0          0      )    f =(  0.0000000 )
                  (     1          1          0      )       (  0.0000000 )
                  (     0          0         -1      )       (  0.5000000 )

 cart.    s( 3) = ( -1.0000000 -0.0000000  0.0000000 )    f =(  0.0000000 )
                  (  0.0000000  1.0000000  0.0000000 )       (  0.0000000 )
                  (  0.0000000  0.0000000 -1.0000000 )       (  0.8071951 )


      isym =  4     180 deg rotation - cart. axis [1,0,0]        

 cryst.   s( 4) = (     1          0          0      )
                  (    -1         -1          0      )
                  (     0          0         -1      )

 cart.    s( 4) = (  1.0000000  0.0000000  0.0000000 )
                  (  0.0000000 -1.0000000  0.0000000 )
                  (  0.0000000  0.0000000 -1.0000000 )


      isym =  5      60 deg rotation - cryst. axis [0,0,1]       

 cryst.   s( 5) = (     1          1          0      )    f =(  0.0000000 )
                  (    -1          0          0      )       (  0.0000000 )
                  (     0          0          1      )       (  0.5000000 )

 cart.    s( 5) = (  0.5000000 -0.8660254  0.0000000 )    f =(  0.0000000 )
                  (  0.8660254  0.5000000  0.0000000 )       (  0.0000000 )
                  (  0.0000000  0.0000000  1.0000000 )       (  0.8071951 )


      isym =  6      60 deg rotation - cryst. axis [0,0,-1]      

 cryst.   s( 6) = (     0         -1          0      )    f =(  0.0000000 )
                  (     1          1          0      )       (  0.0000000 )
                  (     0          0          1      )       (  0.5000000 )

 cart.    s( 6) = (  0.5000000  0.8660254  0.0000000 )    f =(  0.0000000 )
                  ( -0.8660254  0.5000000  0.0000000 )       (  0.0000000 )
                  (  0.0000000  0.0000000  1.0000000 )       (  0.8071951 )


      isym =  7     120 deg rotation - cryst. axis [0,0,1]       

 cryst.   s( 7) = (     0          1          0      )
                  (    -1         -1          0      )
                  (     0          0          1      )

 cart.    s( 7) = ( -0.5000000 -0.8660254  0.0000000 )
                  (  0.8660254 -0.5000000  0.0000000 )
                  (  0.0000000  0.0000000  1.0000000 )


      isym =  8     120 deg rotation - cryst. axis [0,0,-1]      

 cryst.   s( 8) = (    -1         -1          0      )
                  (     1          0          0      )
                  (     0          0          1      )

 cart.    s( 8) = ( -0.5000000  0.8660254  0.0000000 )
                  ( -0.8660254 -0.5000000  0.0000000 )
                  (  0.0000000  0.0000000  1.0000000 )


      isym =  9     180 deg rotation - cryst. axis [1,-1,0]      

 cryst.   s( 9) = (     0         -1          0      )    f =(  0.0000000 )
                  (    -1          0          0      )       (  0.0000000 )
                  (     0          0         -1      )       (  0.5000000 )

 cart.    s( 9) = (  0.5000000 -0.8660254  0.0000000 )    f =(  0.0000000 )
                  ( -0.8660254 -0.5000000  0.0000000 )       (  0.0000000 )
                  (  0.0000000  0.0000000 -1.0000000 )       (  0.8071951 )


      isym = 10     180 deg rotation - cryst. axis [2,1,0]       

 cryst.   s(10) = (     1          1          0      )    f =(  0.0000000 )
                  (     0         -1          0      )       (  0.0000000 )
                  (     0          0         -1      )       (  0.5000000 )

 cart.    s(10) = (  0.5000000  0.8660254  0.0000000 )    f =(  0.0000000 )
                  (  0.8660254 -0.5000000  0.0000000 )       (  0.0000000 )
                  (  0.0000000  0.0000000 -1.0000000 )       (  0.8071951 )


      isym = 11     180 deg rotation - cryst. axis [0,1,0]       

 cryst.   s(11) = (    -1         -1          0      )
                  (     0          1          0      )
                  (     0          0         -1      )

 cart.    s(11) = ( -0.5000000 -0.8660254  0.0000000 )
                  ( -0.8660254  0.5000000  0.0000000 )
                  (  0.0000000  0.0000000 -1.0000000 )


      isym = 12     180 deg rotation - cryst. axis [1,1,0]       

 cryst.   s(12) = (     0          1          0      )
                  (     1          0          0      )
                  (     0          0         -1      )

 cart.    s(12) = ( -0.5000000  0.8660254  0.0000000 )
                  (  0.8660254  0.5000000  0.0000000 )
                  (  0.0000000  0.0000000 -1.0000000 )


      isym = 13     inversion                                    

 cryst.   s(13) = (    -1          0          0      )
                  (     0         -1          0      )
                  (     0          0         -1      )

 cart.    s(13) = ( -1.0000000  0.0000000  0.0000000 )
                  (  0.0000000 -1.0000000  0.0000000 )
                  (  0.0000000  0.0000000 -1.0000000 )


      isym = 14     inv. 180 deg rotation - cart. axis [0,0,1]   

 cryst.   s(14) = (     1          0          0      )    f =(  0.0000000 )
                  (     0          1          0      )       (  0.0000000 )
                  (     0          0         -1      )       (  0.5000000 )

 cart.    s(14) = (  1.0000000  0.0000000  0.0000000 )    f =(  0.0000000 )
                  (  0.0000000  1.0000000  0.0000000 )       (  0.0000000 )
                  (  0.0000000  0.0000000 -1.0000000 )       (  0.8071951 )


      isym = 15     inv. 180 deg rotation - cart. axis [0,1,0]   

 cryst.   s(15) = (     1          0          0      )    f =(  0.0000000 )
                  (    -1         -1          0      )       (  0.0000000 )
                  (     0          0          1      )       (  0.5000000 )

 cart.    s(15) = (  1.0000000  0.0000000  0.0000000 )    f =(  0.0000000 )
                  (  0.0000000 -1.0000000  0.0000000 )       (  0.0000000 )
                  (  0.0000000  0.0000000  1.0000000 )       (  0.8071951 )


      isym = 16     inv. 180 deg rotation - cart. axis [1,0,0]   

 cryst.   s(16) = (    -1          0          0      )
                  (     1          1          0      )
                  (     0          0          1      )

 cart.    s(16) = ( -1.0000000 -0.0000000  0.0000000 )
                  (  0.0000000  1.0000000  0.0000000 )
                  (  0.0000000  0.0000000  1.0000000 )


      isym = 17     inv.  60 deg rotation - cryst. axis [0,0,1]  

 cryst.   s(17) = (    -1         -1          0      )    f =(  0.0000000 )
                  (     1          0          0      )       (  0.0000000 )
                  (     0          0         -1      )       (  0.5000000 )

 cart.    s(17) = ( -0.5000000  0.8660254  0.0000000 )    f =(  0.0000000 )
                  ( -0.8660254 -0.5000000  0.0000000 )       (  0.0000000 )
                  (  0.0000000  0.0000000 -1.0000000 )       (  0.8071951 )


      isym = 18     inv.  60 deg rotation - cryst. axis [0,0,-1] 

 cryst.   s(18) = (     0          1          0      )    f =(  0.0000000 )
                  (    -1         -1          0      )       (  0.0000000 )
                  (     0          0         -1      )       (  0.5000000 )

 cart.    s(18) = ( -0.5000000 -0.8660254  0.0000000 )    f =(  0.0000000 )
                  (  0.8660254 -0.5000000  0.0000000 )       (  0.0000000 )
                  (  0.0000000  0.0000000 -1.0000000 )       (  0.8071951 )


      isym = 19     inv. 120 deg rotation - cryst. axis [0,0,1]  

 cryst.   s(19) = (     0         -1          0      )
                  (     1          1          0      )
                  (     0          0         -1      )

 cart.    s(19) = (  0.5000000  0.8660254  0.0000000 )
                  ( -0.8660254  0.5000000  0.0000000 )
                  (  0.0000000  0.0000000 -1.0000000 )


      isym = 20     inv. 120 deg rotation - cryst. axis [0,0,-1] 

 cryst.   s(20) = (     1          1          0      )
                  (    -1          0          0      )
                  (     0          0         -1      )

 cart.    s(20) = (  0.5000000 -0.8660254  0.0000000 )
                  (  0.8660254  0.5000000  0.0000000 )
                  (  0.0000000  0.0000000 -1.0000000 )


      isym = 21     inv. 180 deg rotation - cryst. axis [1,-1,0] 

 cryst.   s(21) = (     0          1          0      )    f =(  0.0000000 )
                  (     1          0          0      )       (  0.0000000 )
                  (     0          0          1      )       (  0.5000000 )

 cart.    s(21) = ( -0.5000000  0.8660254  0.0000000 )    f =(  0.0000000 )
                  (  0.8660254  0.5000000  0.0000000 )       (  0.0000000 )
                  (  0.0000000  0.0000000  1.0000000 )       (  0.8071951 )


      isym = 22     inv. 180 deg rotation - cryst. axis [2,1,0]  

 cryst.   s(22) = (    -1         -1          0      )    f =(  0.0000000 )
                  (     0          1          0      )       (  0.0000000 )
                  (     0          0          1      )       (  0.5000000 )

 cart.    s(22) = ( -0.5000000 -0.8660254  0.0000000 )    f =(  0.0000000 )
                  ( -0.8660254  0.5000000  0.0000000 )       (  0.0000000 )
                  (  0.0000000  0.0000000  1.0000000 )       (  0.8071951 )


      isym = 23     inv. 180 deg rotation - cryst. axis [0,1,0]  

 cryst.   s(23) = (     1          1          0      )
                  (     0         -1          0      )
                  (     0          0          1      )

 cart.    s(23) = (  0.5000000  0.8660254  0.0000000 )
                  (  0.8660254 -0.5000000  0.0000000 )
                  (  0.0000000  0.0000000  1.0000000 )


      isym = 24     inv. 180 deg rotation - cryst. axis [1,1,0]  

 cryst.   s(24) = (     0         -1          0      )
                  (    -1          0          0      )
                  (     0          0          1      )

 cart.    s(24) = (  0.5000000 -0.8660254  0.0000000 )
                  ( -0.8660254 -0.5000000  0.0000000 )
                  (  0.0000000  0.0000000  1.0000000 )


   Cartesian axes

     site n.     atom                  positions (alat units)
         1           Co  tau(   1) = (   0.0000000   0.5773503   1.2107927  )
         2           Co  tau(   2) = (   0.5000000   0.2886751   0.4035976  )

   Crystallographic axes

     site n.     atom                  positions (cryst. coord.)
         1           Co  tau(   1) = (  0.3333333  0.6666667  0.7500000  )
         2           Co  tau(   2) = (  0.6666667  0.3333333  0.2500000  )

     number of k points=    50  gaussian smearing, width (Ry)=  0.0010
                       cart. coord. in units 2pi/alat
        k(    1) = (   0.0000000   0.0000000   0.0000000), wk =   0.0400000
        k(    2) = (   0.0833333   0.0481125   0.0000000), wk =   0.0400000
        k(    3) = (   0.1666667   0.0962250   0.0000000), wk =   0.0400000
        k(    4) = (   0.2500000   0.1443376   0.0000000), wk =   0.0400000
        k(    5) = (   0.3333333   0.1924501   0.0000000), wk =   0.0400000
        k(    6) = (   0.4166667   0.2405626   0.0000000), wk =   0.0400000
        k(    7) = (   0.5000000   0.2886751   0.0000000), wk =   0.0400000
        k(    8) = (   0.4444444   0.3849002   0.0000000), wk =   0.0400000
        k(    9) = (   0.3888889   0.4811252   0.0000000), wk =   0.0400000
        k(   10) = (   0.3333333   0.5773503   0.0000000), wk =   0.0400000
        k(   11) = (   0.2916667   0.5051815   0.0000000), wk =   0.0400000
        k(   12) = (   0.2500000   0.4330127   0.0000000), wk =   0.0400000
        k(   13) = (   0.2083333   0.3608439   0.0000000), wk =   0.0400000
        k(   14) = (   0.1666667   0.2886751   0.0000000), wk =   0.0400000
        k(   15) = (   0.1250000   0.2165064   0.0000000), wk =   0.0400000
        k(   16) = (   0.0833333   0.1443376   0.0000000), wk =   0.0400000
        k(   17) = (   0.0416667   0.0721688   0.0000000), wk =   0.0400000
        k(   18) = (   0.0000000   0.0000000   0.0000000), wk =   0.0400000
        k(   19) = (   0.0000000   0.0000000   0.1032382), wk =   0.0400000
        k(   20) = (   0.0000000   0.0000000   0.2064763), wk =   0.0400000
        k(   21) = (   0.0000000   0.0000000   0.3097145), wk =   0.0400000
        k(   22) = (   0.0714286   0.0412393   0.3097145), wk =   0.0400000
        k(   23) = (   0.1428571   0.0824786   0.3097145), wk =   0.0400000
        k(   24) = (   0.2142857   0.1237179   0.3097145), wk =   0.0400000
        k(   25) = (   0.2857143   0.1649572   0.3097145), wk =   0.0400000
        k(   26) = (   0.3571429   0.2061965   0.3097145), wk =   0.0400000
        k(   27) = (   0.4285714   0.2474358   0.3097145), wk =   0.0400000
        k(   28) = (   0.5000000   0.2886751   0.3097145), wk =   0.0400000
        k(   29) = (   0.4583333   0.3608439   0.3097145), wk =   0.0400000
        k(   30) = (   0.4166667   0.4330127   0.3097145), wk =   0.0400000
        k(   31) = (   0.3750000   0.5051815   0.3097145), wk =   0.0400000
        k(   32) = (   0.3333333   0.5773503   0.3097145), wk =   0.0400000
        k(   33) = (   0.2962963   0.5132002   0.3097145), wk =   0.0400000
        k(   34) = (   0.2592593   0.4490502   0.3097145), wk =   0.0400000
        k(   35) = (   0.2222222   0.3849002   0.3097145), wk =   0.0400000
        k(   36) = (   0.1851852   0.3207501   0.3097145), wk =   0.0400000
        k(   37) = (   0.1481481   0.2566001   0.3097145), wk =   0.0400000
        k(   38) = (   0.1111111   0.1924501   0.3097145), wk =   0.0400000
        k(   39) = (   0.0740741   0.1283001   0.3097145), wk =   0.0400000
        k(   40) = (   0.0370370   0.0641500   0.3097145), wk =   0.0400000
        k(   41) = (   0.0000000   0.0000000   0.3097145), wk =   0.0400000
        k(   42) = (   0.5000000   0.2886751   0.3097145), wk =   0.0400000
        k(   43) = (   0.5000000   0.2886751   0.2322858), wk =   0.0400000
        k(   44) = (   0.5000000   0.2886751   0.1548572), wk =   0.0400000
        k(   45) = (   0.5000000   0.2886751   0.0774286), wk =   0.0400000
        k(   46) = (   0.5000000   0.2886751   0.0000000), wk =   0.0400000
        k(   47) = (   0.3333333   0.5773503   0.0000000), wk =   0.0400000
        k(   48) = (   0.3333333   0.5773503   0.1032382), wk =   0.0400000
        k(   49) = (   0.3333333   0.5773503   0.2064763), wk =   0.0400000
        k(   50) = (   0.3333333   0.5773503   0.3097145), wk =   0.0400000

                       cryst. coord.
        k(    1) = (   0.0000000   0.0000000   0.0000000), wk =   0.0400000
        k(    2) = (   0.0833333   0.0000000   0.0000000), wk =   0.0400000
        k(    3) = (   0.1666667   0.0000000   0.0000000), wk =   0.0400000
        k(    4) = (   0.2500000   0.0000000   0.0000000), wk =   0.0400000
        k(    5) = (   0.3333333   0.0000000   0.0000000), wk =   0.0400000
        k(    6) = (   0.4166667   0.0000000   0.0000000), wk =   0.0400000
        k(    7) = (   0.5000000   0.0000000   0.0000000), wk =   0.0400000
        k(    8) = (   0.4444444   0.1111111   0.0000000), wk =   0.0400000
        k(    9) = (   0.3888889   0.2222222   0.0000000), wk =   0.0400000
        k(   10) = (   0.3333333   0.3333333   0.0000000), wk =   0.0400000
        k(   11) = (   0.2916667   0.2916667   0.0000000), wk =   0.0400000
        k(   12) = (   0.2500000   0.2500000   0.0000000), wk =   0.0400000
        k(   13) = (   0.2083333   0.2083333   0.0000000), wk =   0.0400000
        k(   14) = (   0.1666667   0.1666667   0.0000000), wk =   0.0400000
        k(   15) = (   0.1250000   0.1250000   0.0000000), wk =   0.0400000
        k(   16) = (   0.0833333   0.0833333   0.0000000), wk =   0.0400000
        k(   17) = (   0.0416667   0.0416667   0.0000000), wk =   0.0400000
        k(   18) = (   0.0000000   0.0000000   0.0000000), wk =   0.0400000
        k(   19) = (   0.0000000   0.0000000   0.1666667), wk =   0.0400000
        k(   20) = (   0.0000000   0.0000000   0.3333333), wk =   0.0400000
        k(   21) = (   0.0000000   0.0000000   0.5000000), wk =   0.0400000
        k(   22) = (   0.0714286   0.0000000   0.5000000), wk =   0.0400000
        k(   23) = (   0.1428571   0.0000000   0.5000000), wk =   0.0400000
        k(   24) = (   0.2142857   0.0000000   0.5000000), wk =   0.0400000
        k(   25) = (   0.2857143   0.0000000   0.5000000), wk =   0.0400000
        k(   26) = (   0.3571429   0.0000000   0.5000000), wk =   0.0400000
        k(   27) = (   0.4285714   0.0000000   0.5000000), wk =   0.0400000
        k(   28) = (   0.5000000   0.0000000   0.5000000), wk =   0.0400000
        k(   29) = (   0.4583333   0.0833333   0.5000000), wk =   0.0400000
        k(   30) = (   0.4166667   0.1666667   0.5000000), wk =   0.0400000
        k(   31) = (   0.3750000   0.2500000   0.5000000), wk =   0.0400000
        k(   32) = (   0.3333333   0.3333333   0.5000000), wk =   0.0400000
        k(   33) = (   0.2962963   0.2962963   0.5000000), wk =   0.0400000
        k(   34) = (   0.2592593   0.2592593   0.5000000), wk =   0.0400000
        k(   35) = (   0.2222222   0.2222222   0.5000000), wk =   0.0400000
        k(   36) = (   0.1851852   0.1851852   0.5000000), wk =   0.0400000
        k(   37) = (   0.1481481   0.1481481   0.5000000), wk =   0.0400000
        k(   38) = (   0.1111111   0.1111111   0.5000000), wk =   0.0400000
        k(   39) = (   0.0740741   0.0740741   0.5000000), wk =   0.0400000
        k(   40) = (   0.0370370   0.0370370   0.5000000), wk =   0.0400000
        k(   41) = (   0.0000000   0.0000000   0.5000000), wk =   0.0400000
        k(   42) = (   0.5000000   0.0000000   0.5000000), wk =   0.0400000
        k(   43) = (   0.5000000   0.0000000   0.3750000), wk =   0.0400000
        k(   44) = (   0.5000000   0.0000000   0.2500000), wk =   0.0400000
        k(   45) = (   0.5000000   0.0000000   0.1250000), wk =   0.0400000
        k(   46) = (   0.5000000   0.0000000   0.0000000), wk =   0.0400000
        k(   47) = (   0.3333333   0.3333333   0.0000000), wk =   0.0400000
        k(   48) = (   0.3333333   0.3333333   0.1666667), wk =   0.0400000
        k(   49) = (   0.3333333   0.3333333   0.3333333), wk =   0.0400000
        k(   50) = (   0.3333333   0.3333333   0.5000000), wk =   0.0400000

     Dense  grid:     7055 G-vectors     FFT dimensions: (  24,  24,  36)

     Smooth grid:     5071 G-vectors     FFT dimensions: (  20,  20,  32)

     Estimated max dynamical RAM per process >      14.67Mb

     Check: negative/imaginary core charge=   -0.000061    0.000000

     The potential is recalculated from file :
     ./pwscf.save/charge-density.dat

     Starting wfc are   26 randomized atomic wfcs

     Band Structure Calculation
     Davidson diagonalization with overlap

     Computing kpt #:     1
     total cpu time spent up to now is        0.7 secs

     Computing kpt #:     2
     total cpu time spent up to now is        0.8 secs

     Computing kpt #:     3
     total cpu time spent up to now is        0.9 secs

     Computing kpt #:     4
     total cpu time spent up to now is        1.0 secs

     Computing kpt #:     5
     total cpu time spent up to now is        1.2 secs

     Computing kpt #:     6
     total cpu time spent up to now is        1.3 secs

     Computing kpt #:     7
     total cpu time spent up to now is        1.5 secs

     Computing kpt #:     8
     total cpu time spent up to now is        1.6 secs

     Computing kpt #:     9
     total cpu time spent up to now is        1.7 secs

     Computing kpt #:    10
     total cpu time spent up to now is        1.9 secs

     Computing kpt #:    11
     total cpu time spent up to now is        2.0 secs

     Computing kpt #:    12
     total cpu time spent up to now is        2.2 secs

     Computing kpt #:    13
     total cpu time spent up to now is        2.3 secs

     Computing kpt #:    14
     total cpu time spent up to now is        2.4 secs

     Computing kpt #:    15
     total cpu time spent up to now is        2.6 secs

     Computing kpt #:    16
     total cpu time spent up to now is        2.7 secs

     Computing kpt #:    17
     total cpu time spent up to now is        2.8 secs

     Computing kpt #:    18
     total cpu time spent up to now is        2.9 secs

     Computing kpt #:    19
     total cpu time spent up to now is        3.0 secs

     Computing kpt #:    20
     total cpu time spent up to now is        3.2 secs

     Computing kpt #:    21
     total cpu time spent up to now is        3.3 secs

     Computing kpt #:    22
     total cpu time spent up to now is        3.4 secs

     Computing kpt #:    23
     total cpu time spent up to now is        3.6 secs

     Computing kpt #:    24
     total cpu time spent up to now is        3.7 secs

     Computing kpt #:    25
     total cpu time spent up to now is        3.9 secs

     Computing kpt #:    26
     total cpu time spent up to now is        4.0 secs

     Computing kpt #:    27
     total cpu time spent up to now is        4.2 secs

     Computing kpt #:    28
     total cpu time spent up to now is        4.3 secs

     Computing kpt #:    29
     total cpu time spent up to now is        4.4 secs

     Computing kpt #:    30
     total cpu time spent up to now is        4.6 secs

     Computing kpt #:    31
     total cpu time spent up to now is        4.7 secs

     Computing kpt #:    32
     total cpu time spent up to now is        4.8 secs

     Computing kpt #:    33
     total cpu time spent up to now is        5.0 secs

     Computing kpt #:    34
     total cpu time spent up to now is        5.1 secs

     Computing kpt #:    35
     total cpu time spent up to now is        5.3 secs

     Computing kpt #:    36
     total cpu time spent up to now is        5.4 secs

     Computing kpt #:    37
     total cpu time spent up to now is        5.6 secs

     Computing kpt #:    38
     total cpu time spent up to now is        5.7 secs

     Computing kpt #:    39
     total cpu time spent up to now is        5.9 secs

     Computing kpt #:    40
     total cpu time spent up to now is        6.0 secs

     Computing kpt #:    41
     total cpu time spent up to now is        6.2 secs

     Computing kpt #:    42
     total cpu time spent up to now is        6.3 secs

     Computing kpt #:    43
     total cpu time spent up to now is        6.5 secs

     Computing kpt #:    44
     total cpu time spent up to now is        6.6 secs

     Computing kpt #:    45
     total cpu time spent up to now is        6.8 secs

     Computing kpt #:    46
     total cpu time spent up to now is        6.9 secs

     Computing kpt #:    47
     total cpu time spent up to now is        7.0 secs

     Computing kpt #:    48
     total cpu time spent up to now is        7.2 secs

     Computing kpt #:    49
     total cpu time spent up to now is        7.3 secs

     Computing kpt #:    50
     total cpu time spent up to now is        7.4 secs

     ethr =  2.94E-10,  avg # of iterations = 10.4

     total cpu time spent up to now is        7.4 secs

     End of band structure calculation

          k = 0.0000 0.0000 0.0000 (   615 PWs)   bands (ev):

   -76.7982 -76.7401 -40.2541 -39.9234 -39.9234 -39.9157 -39.8740 -39.8740
     9.3753  13.6447  16.4998  16.5475  16.5475  16.8874  16.8874  17.2335
    17.2335  18.1893  18.3990  18.3990  25.1282

          k = 0.0833 0.0481 0.0000 (   619 PWs)   bands (ev):

   -76.7950 -76.7387 -40.2467 -39.9393 -39.9286 -39.9188 -39.8906 -39.8767
     9.6186  13.7997  16.2800  16.6661  16.7223  16.8319  16.9847  16.9921
    17.1571  17.3230  18.4319  19.6723  25.1588

          k = 0.1667 0.0962 0.0000 (   628 PWs)   bands (ev):

   -76.7861 -76.7349 -40.2259 -39.9829 -39.9426 -39.9353 -39.9280 -39.8841
    10.3246  14.1913  15.9731  16.1083  16.6345  16.9692  17.0019  17.0351
    17.1058  17.2861  18.5019  21.2514  25.2708

          k = 0.2500 0.1443 0.0000 (   620 PWs)   bands (ev):

   -76.7734 -76.7301 -40.1946 -40.0431 -39.9954 -39.9611 -39.9435 -39.8948
    11.4076  14.5442  15.3814  15.7397  16.5106  16.7442  16.9082  17.4653
    17.4914  17.7097  18.5677  23.0136  25.4951

          k = 0.3333 0.1925 0.0000 (   626 PWs)   bands (ev):

   -76.7597 -76.7263 -40.1579 -40.1038 -40.0543 -39.9792 -39.9643 -39.9059
    12.6569  14.5265  14.8663  15.7425  16.5420  16.6152  16.7194  18.0171
    18.1260  18.1706  18.6127  24.9252  25.4968

          k = 0.4167 0.2406 0.0000 (   626 PWs)   bands (ev):

   -76.7485 -76.7248 -40.1486 -40.1240 -40.0968 -39.9922 -39.9866 -39.9141
    13.6394  14.3290  14.5610  15.9509  16.4042  16.5841  16.8244  18.4118
    18.5557  18.6366  19.1355  23.6876  26.8873

          k = 0.5000 0.2887 0.0000 (   640 PWs)   bands (ev):

   -76.7438 -76.7248 -40.1650 -40.1122 -40.1081 -39.9982 -39.9969 -39.9172
    14.0222  14.1740  14.4601  16.1426  16.3555  16.5351  16.9059  18.5541
    18.6439  18.7135  20.1557  22.0550  28.1428

          k = 0.4444 0.3849 0.0000 (   636 PWs)   bands (ev):

   -76.7417 -76.7249 -40.1565 -40.1039 -40.1006 -40.0122 -40.0039 -39.9359
    14.2128  14.3505  14.5111  15.8963  16.2839  16.4892  16.9466  18.5330
    18.5580  18.5768  20.5903  22.3309  28.5748

          k = 0.3889 0.4811 0.0000 (   628 PWs)   bands (ev):

   -76.7362 -76.7261 -40.1342 -40.0821 -40.0797 -40.0479 -40.0210 -39.9815
    14.6132  14.6301  14.7592  15.4348  16.1623  16.3567  17.0846  18.2566
    18.4630  18.4779  21.7317  22.9743  26.9721

          k = 0.3333 0.5774 0.0000 (   627 PWs)   bands (ev):

   -76.7299 -76.7299 -40.1171 -40.0674 -40.0674 -40.0492 -40.0492 -40.0151
    14.6560  14.9325  14.9325  15.1979  16.1914  16.1914  17.2109  18.2848
    18.2848  18.4188  23.1168  23.9052  23.9052

          k = 0.2917 0.5052 0.0000 (   627 PWs)   bands (ev):

   -76.7356 -76.7263 -40.1206 -40.0829 -40.0769 -40.0476 -40.0234 -39.9985
    14.6536  14.7283  15.0147  15.1300  16.1118  16.3545  17.1247  18.0806
    18.4369  18.4974  21.5211  24.9106  25.0105

          k = 0.2500 0.4330 0.0000 (   635 PWs)   bands (ev):

   -76.7439 -76.7247 -40.1129 -40.1089 -40.0909 -40.0183 -39.9974 -39.9703
    14.1939  14.7014  15.0338  15.0471  16.1151  16.5785  16.9215  17.8406
    18.4745  18.5611  20.0235  26.0507  26.8047

          k = 0.2083 0.3608 0.0000 (   631 PWs)   bands (ev):

   -76.7546 -76.7254 -40.1432 -40.0849 -40.0791 -39.9891 -39.9735 -39.9422
    13.1916  14.8667  14.9960  15.1610  16.2180  16.6934  16.8032  17.5828
    18.3254  18.5089  18.9770  25.7047  26.2460

          k = 0.1667 0.2887 0.0000 (   627 PWs)   bands (ev):

   -76.7667 -76.7281 -40.1772 -40.0490 -40.0397 -39.9629 -39.9529 -39.9174
    12.0231  14.8267  15.1890  15.4076  16.4127  16.5585  16.9928  17.3270
    17.8579  18.2205  18.5240  23.9309  25.7625

          k = 0.1250 0.2165 0.0000 (   621 PWs)   bands (ev):

   -76.7787 -76.7320 -40.2080 -40.0079 -39.9870 -39.9401 -39.9366 -39.8976
    10.9420  14.4849  15.6855  15.7231  16.5861  16.6687  17.0908  17.1344
    17.3357  17.6425  18.5116  22.2989  25.4143

          k = 0.0833 0.1443 0.0000 (   625 PWs)   bands (ev):

   -76.7889 -76.7360 -40.2326 -39.9663 -39.9448 -39.9250 -39.9153 -39.8838
    10.0939  14.0780  16.0444  16.3551  16.7125  16.8837  16.9078  16.9364
    17.2200  17.2340  18.4727  20.8121  25.2321

          k = 0.0417 0.0722 0.0000 (   619 PWs)   bands (ev):

   -76.7958 -76.7390 -40.2485 -39.9351 -39.9276 -39.9180 -39.8863 -39.8762
     9.5581  13.7621  16.3163  16.6373  16.7004  16.8383  16.9682  17.0939
    17.1494  17.3968  18.4234  19.4764  25.1508

          k = 0.0000 0.0000 0.0000 (   615 PWs)   bands (ev):

   -76.7982 -76.7401 -40.2541 -39.9234 -39.9234 -39.9157 -39.8740 -39.8740
     9.3753  13.6447  16.4998  16.5475  16.5475  16.8874  16.8874  17.2335
    17.2335  18.1893  18.3990  18.3990  25.1282

          k = 0.0000 0.0000 0.1032 (   627 PWs)   bands (ev):

   -76.7943 -76.7440 -40.2317 -39.9387 -39.9201 -39.9201 -39.8773 -39.8773
     9.6555  13.5146  16.4192  16.4770  16.4770  16.8067  16.8067  17.3674
    17.4090  17.4090  18.3846  18.3846  26.5765

          k = 0.0000 0.0000 0.2065 (   646 PWs)   bands (ev):

   -76.7837 -76.7547 -40.1704 -40.0012 -39.9110 -39.9110 -39.8864 -39.8864
    10.4625  12.8782  16.2233  16.3230  16.4177  16.4177  16.6299  16.6299
    17.7530  17.7530  18.2963  18.2963  29.7126

          k = 0.0000 0.0000 0.3097 (   640 PWs)   bands (ev):

   -76.7692 -76.7692 -40.0861 -40.0861 -39.8987 -39.8987 -39.8987 -39.8987
    11.6629  11.6629  16.0698  16.0698  16.4736  16.4736  16.4736  16.4736
    18.0797  18.0797  18.0797  18.0797  33.4843

          k = 0.0714 0.0412 0.3097 (   630 PWs)   bands (ev):

   -76.7675 -76.7675 -40.0871 -40.0871 -39.9081 -39.9081 -39.9016 -39.9016
    11.8180  11.8180  15.9758  15.9758  16.4716  16.4716  16.5435  16.5435
    18.0709  18.0709  18.1363  18.1363  33.6061

          k = 0.1429 0.0825 0.3097 (   628 PWs)   bands (ev):

   -76.7627 -76.7627 -40.0916 -40.0916 -39.9325 -39.9325 -39.9097 -39.9097
    12.2559  12.2559  15.7890  15.7890  16.4172  16.4172  16.7366  16.7366
    18.0540  18.0540  18.2969  18.2969  33.9537

          k = 0.2143 0.1237 0.3097 (   624 PWs)   bands (ev):

   -76.7557 -76.7557 -40.1045 -40.1045 -39.9612 -39.9612 -39.9215 -39.9215
    12.8748  12.8748  15.6199  15.6199  16.3568  16.3568  16.9969  16.9969
    18.0628  18.0628  18.5293  18.5293  34.0668

          k = 0.2857 0.1650 0.3097 (   624 PWs)   bands (ev):

   -76.7479 -76.7479 -40.1301 -40.1301 -39.9816 -39.9816 -39.9345 -39.9345
    13.4518  13.4518  15.4975  15.4975  16.5208  16.5208  17.2218  17.2218
    18.1590  18.1590  18.8081  18.8081  31.5473

          k = 0.3571 0.2062 0.3097 (   624 PWs)   bands (ev):

   -76.7409 -76.7409 -40.1624 -40.1624 -39.9905 -39.9905 -39.9462 -39.9462
    13.7572  13.7572  15.3832  15.3832  17.0984  17.0984  17.3304  17.3304
    18.3632  18.3632  19.1704  19.1704  28.9378

          k = 0.4286 0.2474 0.3097 (   632 PWs)   bands (ev):

   -76.7360 -76.7360 -40.1882 -40.1882 -39.9932 -39.9932 -39.9543 -39.9543
    13.8388  13.8388  15.2921  15.2921  17.3573  17.3573  17.7260  17.7260
    18.5678  18.5678  19.7169  19.7169  26.8524

          k = 0.5000 0.2887 0.3097 (   632 PWs)   bands (ev):

   -76.7343 -76.7343 -40.1979 -40.1979 -39.9936 -39.9936 -39.9571 -39.9571
    13.8480  13.8480  15.2582  15.2582  17.3600  17.3600  17.9531  17.9531
    18.6510  18.6510  20.1028  20.1028  25.9528

          k = 0.4583 0.3608 0.3097 (   626 PWs)   bands (ev):

   -76.7337 -76.7337 -40.1931 -40.1931 -40.0015 -40.0015 -39.9584 -39.9584
    13.9624  13.9624  15.3196  15.3196  17.0709  17.0709  17.8466  17.8466
    18.5454  18.5454  20.6777  20.6777  26.0025

          k = 0.4167 0.4330 0.3097 (   622 PWs)   bands (ev):

   -76.7323 -76.7323 -40.1803 -40.1803 -40.0242 -40.0242 -39.9599 -39.9599
    14.2755  14.2755  15.4720  15.4720  16.4864  16.4864  17.5728  17.5728
    18.4980  18.4980  21.8512  21.8512  26.1380

          k = 0.3750 0.5052 0.3097 (   626 PWs)   bands (ev):

   -76.7307 -76.7307 -40.1640 -40.1640 -40.0523 -40.0523 -39.9602 -39.9602
    14.7057  14.7057  15.5097  15.5097  16.0453  16.0453  17.3409  17.3409
    18.4624  18.4624  23.2312  23.2312  26.2480

          k = 0.3333 0.5774 0.3097 (   618 PWs)   bands (ev):

   -76.7299 -76.7299 -40.1558 -40.1558 -40.0662 -40.0662 -39.9602 -39.9602
    15.1204  15.1204  15.1795  15.1795  16.0032  16.0032  17.2724  17.2724
    18.4331  18.4331  24.2671  24.2671  25.9208

          k = 0.2963 0.5132 0.3097 (   636 PWs)   bands (ev):

   -76.7307 -76.7307 -40.1600 -40.1600 -40.0561 -40.0561 -39.9602 -39.9602
    14.8045  14.8045  15.4637  15.4637  16.0014  16.0014  17.2687  17.2687
    18.4743  18.4743  23.1693  23.1693  26.8679

          k = 0.2593 0.4491 0.3097 (   622 PWs)   bands (ev):

   -76.7333 -76.7333 -40.1624 -40.1624 -40.0348 -40.0348 -39.9592 -39.9592
    14.5143  14.5143  15.6115  15.6115  16.0425  16.0425  17.2112  17.2112
    18.5665  18.5665  21.5553  21.5553  28.4756

          k = 0.2222 0.3849 0.3097 (   620 PWs)   bands (ev):

   -76.7379 -76.7379 -40.1543 -40.1543 -40.0125 -40.0125 -39.9555 -39.9555
    14.2284  14.2284  15.6315  15.6315  16.0687  16.0687  17.1748  17.1748
    18.6000  18.6000  20.1705  20.1705  30.2524

          k = 0.1852 0.3208 0.3097 (   628 PWs)   bands (ev):

   -76.7440 -76.7440 -40.1362 -40.1362 -39.9933 -39.9933 -39.9465 -39.9465
    13.8446  13.8446  15.5969  15.5969  16.0805  16.0805  17.1946  17.1946
    18.4813  18.4813  19.2011  19.2011  32.1455

          k = 0.1481 0.2566 0.3097 (   628 PWs)   bands (ev):

   -76.7510 -76.7510 -40.1150 -40.1150 -39.9749 -39.9749 -39.9330 -39.9330
    13.3016  13.3016  15.5878  15.5878  16.1717  16.1717  17.1422  17.1422
    18.2159  18.2159  18.7175  18.7175  34.1041

          k = 0.1111 0.1925 0.3097 (   638 PWs)   bands (ev):

   -76.7579 -76.7579 -40.0987 -40.0987 -39.9520 -39.9520 -39.9192 -39.9192
    12.6872  12.6872  15.6732  15.6732  16.3081  16.3081  16.9352  16.9352
    18.0720  18.0720  18.4567  18.4567  34.3016

          k = 0.0741 0.1283 0.3097 (   624 PWs)   bands (ev):

   -76.7639 -76.7639 -40.0901 -40.0901 -39.9265 -39.9265 -39.9081 -39.9081
    12.1480  12.1480  15.8290  15.8290  16.4235  16.4235  16.6957  16.6957
    18.0578  18.0578  18.2578  18.2578  33.8701

          k = 0.0370 0.0642 0.3097 (   632 PWs)   bands (ev):

   -76.7678 -76.7678 -40.0869 -40.0869 -39.9063 -39.9063 -39.9011 -39.9011
    11.7883  11.7883  15.9921  15.9921  16.4727  16.4727  16.5307  16.5307
    18.0724  18.0724  18.1255  18.1255  33.5827

          k = 0.0000 0.0000 0.3097 (   640 PWs)   bands (ev):

   -76.7692 -76.7692 -40.0861 -40.0861 -39.8987 -39.8987 -39.8987 -39.8987
    11.6629  11.6629  16.0698  16.0698  16.4736  16.4736  16.4736  16.4736
    18.0797  18.0797  18.0797  18.0797  33.4843

          k = 0.5000 0.2887 0.3097 (   632 PWs)   bands (ev):

   -76.7343 -76.7343 -40.1979 -40.1979 -39.9936 -39.9936 -39.9571 -39.9571
    13.8480  13.8480  15.2582  15.2582  17.3600  17.3600  17.9531  17.9531
    18.6510  18.6510  20.1028  20.1028  25.9528

          k = 0.5000 0.2887 0.2323 (   632 PWs)   bands (ev):

   -76.7379 -76.7306 -40.2047 -40.1786 -40.0180 -39.9818 -39.9724 -39.9419
    13.7104  14.0689  15.1126  15.3546  16.9536  17.2714  17.8008  18.6272
    18.6352  18.6750  19.2575  20.9541  26.1445

          k = 0.5000 0.2887 0.1549 (   632 PWs)   bands (ev):

   -76.7410 -76.7276 -40.1977 -40.1514 -40.0514 -39.9853 -39.9827 -39.9289
    13.7118  14.2134  15.1642  15.1961  16.6313  16.9308  18.0636  18.2067
    18.6085  18.6953  19.5621  21.5873  26.7410

          k = 0.5000 0.2887 0.0774 (   634 PWs)   bands (ev):

   -76.7431 -76.7255 -40.1795 -40.1246 -40.0873 -39.9939 -39.9920 -39.9202
    13.8569  14.1995  14.7447  15.6348  16.4259  16.8903  17.1794  18.4875
    18.6075  18.7088  20.0020  21.9443  27.6087

          k = 0.5000 0.2887 0.0000 (   640 PWs)   bands (ev):

   -76.7438 -76.7248 -40.1650 -40.1122 -40.1081 -39.9982 -39.9969 -39.9172
    14.0222  14.1740  14.4601  16.1426  16.3555  16.5351  16.9059  18.5541
    18.6439  18.7135  20.1557  22.0550  28.1428

          k = 0.3333 0.5774 0.0000 (   627 PWs)   bands (ev):

   -76.7299 -76.7299 -40.1171 -40.0674 -40.0674 -40.0492 -40.0492 -40.0151
    14.6560  14.9325  14.9325  15.1979  16.1914  16.1914  17.2109  18.2848
    18.2848  18.4188  23.1168  23.9052  23.9052

          k = 0.3333 0.5774 0.1032 (   621 PWs)   bands (ev):

   -76.7299 -76.7299 -40.1103 -40.1078 -40.1078 -40.0220 -40.0087 -40.0087
    14.7445  14.9763  14.9763  15.2217  16.1445  16.1445  17.1834  18.1667
    18.3247  18.3247  23.5242  23.9760  23.9760

          k = 0.3333 0.5774 0.2065 (   627 PWs)   bands (ev):

   -76.7299 -76.7299 -40.1429 -40.1429 -40.0917 -40.0407 -39.9733 -39.9733
    14.9652  15.0698  15.0698  15.2515  16.0509  16.0509  17.1536  17.6594
    18.3987  18.3987  24.1526  24.1526  24.5438

          k = 0.3333 0.5774 0.3097 (   618 PWs)   bands (ev):

   -76.7299 -76.7299 -40.1558 -40.1558 -40.0662 -40.0662 -39.9602 -39.9602
    15.1204  15.1204  15.1795  15.1795  16.0032  16.0032  17.2724  17.2724
    18.4331  18.4331  24.2671  24.2671  25.9208

     Writing output data file pwscf.save

     init_run     :      0.62s CPU      0.45s WALL (       1 calls)
     electrons    :     14.05s CPU      6.89s WALL (       1 calls)

     Called by init_run:
     wfcinit      :      0.00s CPU      0.00s WALL (       1 calls)
     wfcinit:atom :      0.09s CPU      0.03s WALL (      50 calls)
     wfcinit:wfcr :      1.38s CPU      0.64s WALL (      50 calls)
     potinit      :      0.02s CPU      0.02s WALL (       1 calls)

     Called by electrons:
     c_bands      :     14.05s CPU      6.89s WALL (       1 calls)
     v_of_rho     :      0.02s CPU      0.02s WALL (       1 calls)
     v_h          :      0.00s CPU      0.00s WALL (       1 calls)
     v_xc         :      0.02s CPU      0.02s WALL (       1 calls)
     newd         :      0.02s CPU      0.04s WALL (       1 calls)

     Called by c_bands:
     init_us_2    :      0.11s CPU      0.03s WALL (      50 calls)
     cegterg      :     12.05s CPU      5.87s WALL (      50 calls)

     Called by sum_band:

     Called by *egterg:
     h_psi        :      7.48s CPU      3.67s WALL (     620 calls)
     s_psi        :      0.08s CPU      0.08s WALL (     620 calls)
     g_psi        :      0.25s CPU      0.06s WALL (     520 calls)
     cdiaghg      :      3.67s CPU      2.05s WALL (     570 calls)
     cegterg:over :      0.67s CPU      0.19s WALL (     520 calls)
     cegterg:upda :      0.48s CPU      0.17s WALL (     520 calls)
     cegterg:last :      0.33s CPU      0.10s WALL (     141 calls)

     Called by h_psi:
     h_psi:pot    :      7.41s CPU      3.62s WALL (     620 calls)
     h_psi:calbec :      0.23s CPU      0.10s WALL (     620 calls)
     vloc_psi     :      6.84s CPU      3.39s WALL (     620 calls)
     add_vuspsi   :      0.33s CPU      0.10s WALL (     620 calls)

     General routines
     calbec       :      0.23s CPU      0.09s WALL (     620 calls)
     fft          :      0.00s CPU      0.01s WALL (      13 calls)
     ffts         :      0.00s CPU      0.00s WALL (       1 calls)
     fftw         :      5.53s CPU      2.63s WALL (   17934 calls)
     interpolate  :      0.00s CPU      0.00s WALL (       1 calls)
     davcio       :      0.00s CPU      0.01s WALL (      50 calls)

     Parallel routines
     fft_scatter  :      0.91s CPU      0.39s WALL (   17948 calls)

     PWSCF        :    14.95s CPU         7.73s WALL


   This run was terminated on:  11:31:51  26Feb2021            

=------------------------------------------------------------------------------=
   JOB DONE.
=------------------------------------------------------------------------------=
