element =  B
struct =  bcc
nbands =  -4
path =  GHNGP
kpts =  (8,8,8)
lattice constant a =  2.305
lattice constant b =  2.305
lattice constant c =  2.305
alpha angle =  90.0

  ___ ___ ___ _ _ _  
 |   |   |_  | | | | 
 | | | | | . | | | | 
 |__ |  _|___|_____|  1.3.1b1
 |___|_|             

User:   inukai@DESKTOP-12SE80T
Date:   Thu Feb 11 12:47:14 2021
Arch:   x86_64
Pid:    8547
Python: 3.6.9
gpaw:   /usr/lib/python3/dist-packages/gpaw
_gpaw:  /usr/lib/python3/dist-packages/_gpaw.cpython-36m-x86_64-linux-gnu.so
ase:    /home/inukai/hotcent/ase-3.19.3/ase (version 3.19.3)
numpy:  /home/inukai/.local/lib/python3.6/site-packages/numpy (version 1.19.5)
scipy:  /home/inukai/.local/lib/python3.6/site-packages/scipy (version 1.5.4)
units:  Angstrom and eV
cores:  1

Input parameters:
  kpts: [8 8 8]
  maxiter: 1500
  mixer: {backend: pulay,
          beta: 0.01,
          method: separate,
          nmaxold: 11,
          weight: 100.0}
  mode: {ecut: 400.0,
         name: pw}
  occupations: {name: fermi-dirac,
                width: 0.02}
  spinpol: True
  xc: PBE

System changes: positions, numbers, cell, pbc, initial_charges, initial_magmoms 

Initialize ...

B-setup:
  name: Boron
  id: 6e91439235a05fd7549e31636e8f777c
  Z: 5
  valence: 3
  core: 2
  charge: 0.0
  file: /usr/share/gpaw-setups/B.PBE.gz
  cutoffs: 0.64(comp), 1.14(filt), 1.38(core), lmax=2
  valence states:
                energy  radius
    2s(2.00)    -9.443   0.635
    2p(1.00)    -3.606   0.635
    *s          17.768   0.635
    *p          23.605   0.635
    *d           0.000   0.635

  Using partial waves for B as LCAO basis

Reference energy: -669.489567

Spin-polarized calculation.
Magnetic moment:  0.000000

Occupation numbers:
  Fermi-Dirac: width=0.0200 eV

Convergence criteria:
  Maximum total energy change: 0.0005 eV / electron
  Maximum integral of absolute density change: 0.0001 electrons
  Maximum integral of absolute eigenstate change: 4e-08 eV^2
  Maximum number of iterations: 1500

Symmetries present (total): 48

  ( 1  1  1)  ( 1  1  1)  ( 1  1  1)  ( 1  1  1)  ( 1  1  1)  ( 1  1  1)
  ( 0  0 -1)  ( 0  0 -1)  ( 0 -1  0)  ( 0 -1  0)  (-1  0  0)  (-1  0  0)
  ( 0 -1  0)  (-1  0  0)  ( 0  0 -1)  (-1  0  0)  ( 0  0 -1)  ( 0 -1  0)

  ( 1  0  0)  ( 1  0  0)  ( 1  0  0)  ( 1  0  0)  ( 1  0  0)  ( 1  0  0)
  ( 0  1  0)  ( 0  1  0)  ( 0  0  1)  ( 0  0  1)  (-1 -1 -1)  (-1 -1 -1)
  ( 0  0  1)  (-1 -1 -1)  ( 0  1  0)  (-1 -1 -1)  ( 0  1  0)  ( 0  0  1)

  ( 0  1  0)  ( 0  1  0)  ( 0  1  0)  ( 0  1  0)  ( 0  1  0)  ( 0  1  0)
  ( 1  0  0)  ( 1  0  0)  ( 0  0  1)  ( 0  0  1)  (-1 -1 -1)  (-1 -1 -1)
  ( 0  0  1)  (-1 -1 -1)  ( 1  0  0)  (-1 -1 -1)  ( 1  0  0)  ( 0  0  1)

  ( 0  0  1)  ( 0  0  1)  ( 0  0  1)  ( 0  0  1)  ( 0  0  1)  ( 0  0  1)
  ( 1  0  0)  ( 1  0  0)  ( 0  1  0)  ( 0  1  0)  (-1 -1 -1)  (-1 -1 -1)
  ( 0  1  0)  (-1 -1 -1)  ( 1  0  0)  (-1 -1 -1)  ( 1  0  0)  ( 0  1  0)

  ( 0  0 -1)  ( 0  0 -1)  ( 0  0 -1)  ( 0  0 -1)  ( 0  0 -1)  ( 0  0 -1)
  ( 1  1  1)  ( 1  1  1)  ( 0 -1  0)  ( 0 -1  0)  (-1  0  0)  (-1  0  0)
  ( 0 -1  0)  (-1  0  0)  ( 1  1  1)  (-1  0  0)  ( 1  1  1)  ( 0 -1  0)

  ( 0 -1  0)  ( 0 -1  0)  ( 0 -1  0)  ( 0 -1  0)  ( 0 -1  0)  ( 0 -1  0)
  ( 1  1  1)  ( 1  1  1)  ( 0  0 -1)  ( 0  0 -1)  (-1  0  0)  (-1  0  0)
  ( 0  0 -1)  (-1  0  0)  ( 1  1  1)  (-1  0  0)  ( 1  1  1)  ( 0  0 -1)

  (-1  0  0)  (-1  0  0)  (-1  0  0)  (-1  0  0)  (-1  0  0)  (-1  0  0)
  ( 1  1  1)  ( 1  1  1)  ( 0  0 -1)  ( 0  0 -1)  ( 0 -1  0)  ( 0 -1  0)
  ( 0  0 -1)  ( 0 -1  0)  ( 1  1  1)  ( 0 -1  0)  ( 1  1  1)  ( 0  0 -1)

  (-1 -1 -1)  (-1 -1 -1)  (-1 -1 -1)  (-1 -1 -1)  (-1 -1 -1)  (-1 -1 -1)
  ( 1  0  0)  ( 1  0  0)  ( 0  1  0)  ( 0  1  0)  ( 0  0  1)  ( 0  0  1)
  ( 0  1  0)  ( 0  0  1)  ( 1  0  0)  ( 0  0  1)  ( 1  0  0)  ( 0  1  0)

512 k-points: 8 x 8 x 8 Monkhorst-Pack grid
26 k-points in the irreducible part of the Brillouin zone
       k-points in crystal coordinates                weights
   0:     0.06250000    0.06250000   -0.06250000          6/512
   1:     0.18750000   -0.06250000   -0.06250000          8/512
   2:     0.18750000    0.06250000   -0.06250000         24/512
   3:     0.18750000    0.18750000   -0.18750000          6/512
   4:     0.31250000   -0.06250000   -0.06250000         24/512
   5:     0.31250000    0.06250000   -0.18750000         24/512
   6:     0.31250000    0.06250000   -0.06250000         24/512
   7:     0.31250000    0.18750000   -0.18750000         24/512
   8:     0.31250000    0.31250000   -0.31250000          6/512
   9:     0.31250000    0.31250000    0.18750000         12/512
          ...
  25:     0.43750000    0.43750000    0.43750000          8/512

Wave functions: Plane wave expansion
  Cutoff energy: 400.000 eV
  Number of coefficients (min, max): 108, 117
  Using FFTW library
  Eigensolver: None  MatrixOperator buffer_size: default value or 
                              see value of nblock in input file
Diagonalizer layout: Serial LAPACKOrthonormalizer layout: Serial LAPACK 

Davidson(niter=1, smin=None, normalize=True) 

Densities:
  Coarse grid: 8*8*8 grid
  Fine grid: 16*16*16 grid
  Total Charge: 0.000000 

Density mixing:
  Method: separate
  Backend: pulay
  Linear mixing parameter: 0.01
  Mixing with 11 old densities
  Damping of long wave oscillations: 100 

Hamiltonian:
  XC and Coulomb potentials evaluated on a 16*16*16 grid
  Using the PBE Exchange-Correlation functional
 

Memory estimate:
  Process memory now: 925.77 MiB
  Calculator: 1.29 MiB
    Density: 0.38 MiB
      Arrays: 0.14 MiB
      Localized functions: 0.07 MiB
      Mixer: 0.17 MiB
    Hamiltonian: 0.10 MiB
      Arrays: 0.10 MiB
      XC: 0.00 MiB
      Poisson: 0.00 MiB
      vbar: 0.00 MiB
    Wavefunctions: 0.80 MiB
      Arrays psit_nG: 0.37 MiB
      Eigensolver: 0.02 MiB
      Projections: 0.04 MiB
      Projectors: 0.31 MiB
      Overlap op: 0.01 MiB
      PW-descriptor: 0.05 MiB

Total number of cores used: 1

Number of atoms: 1
Number of atomic orbitals: 4
Number of bands in calculation: 4
Bands to converge: occupied states only
Number of valence electrons: 3

... initialized

Initializing position-dependent things.

Density initialized from atomic densities
Creating initial wave functions:
  4 bands from LCAO basis set

                
                
                
       B        
                
                
                
                

Positions:
   0 B      0.000000    0.000000    0.000000

Unit cell:
           periodic     x           y           z      points  spacing
  1. axis:    yes   -1.152500    1.152500    1.152500     8     0.2037
  2. axis:    yes    1.152500   -1.152500    1.152500     8     0.2037
  3. axis:    yes    1.152500    1.152500   -1.152500     8     0.2037

  Lengths:   1.996189   1.996189   1.996189
  Angles:  109.471221 109.471221 109.471221

Effective grid spacing dv^(1/3) = 0.2287

                     log10-error:    total        iterations:
           time      wfs    density  energy       fermi  poisson  magmom
iter:   1  12:47:17  +1.76   +inf    -4.900060    3               -0.0000
iter:   2  12:47:17  +0.09   +inf    -4.927531    4               +0.0000
iter:   3  12:47:17  -1.23   +inf    -4.929604    3               +0.0000
iter:   4  12:47:18  -2.08  -1.56    -4.930058    2               +0.0000
iter:   5  12:47:18  -2.31  -1.57    -4.941452    4               -0.0000
iter:   6  12:47:19  -2.73  -2.06    -4.942769    3               +0.0000
iter:   7  12:47:19  -4.51  -3.29    -4.942769    2               -0.0000
iter:   8  12:47:20  -5.83  -3.27    -4.942769    2               -0.0000
iter:   9  12:47:20  -5.01  -3.27    -4.942769    2               -0.0000
iter:  10  12:47:21  -5.65  -3.35    -4.942768    2               -0.0000
iter:  11  12:47:21  -7.51  -4.38    -4.942768    1               -0.0000

Converged after 11 iterations.

Dipole moment: (0.000000, -0.000000, 0.000000) |e|*Ang

Total magnetic moment: -0.000000
Local magnetic moments:
   0 B  0.000000

Energy contributions relative to reference atoms: (reference = -669.489567)

Kinetic:         +4.143789
Potential:       -1.803382
External:        +0.000000
XC:              -7.300326
Entropy (-ST):   -0.001496
Local:           +0.017899
--------------------------
Free energy:     -4.943516
Extrapolated:    -4.942768

Spin contamination: 0.000000 electrons
Fermi level: 13.17430

Warning: Showing only first 2 kpts
                      Up                     Down
 Kpt  Band  Eigenvalues  Occupancy  Eigenvalues  Occupancy
  0     0     -5.40029    0.01172     -5.40029    0.01172
  0     1     27.66037    0.00000     27.66037    0.00000
  0     2     27.66085    0.00000     27.66085    0.00000

  1     0     -4.69251    0.01562     -4.69251    0.01562
  1     1     25.41753    0.00000     25.41753    0.00000
  1     2     26.82747    0.00000     26.82747    0.00000


Input parameters:
  convergence: {bands: all}
  eigensolver: {name: cg,
                niter: 5}
  fixdensity: True
  kpts: {npoints: 50,
         path: GHNGP}
  nbands: -4
  symmetry: off

Initialize ...

B-setup:
  name: Boron
  id: 6e91439235a05fd7549e31636e8f777c
  Z: 5
  valence: 3
  core: 2
  charge: 0.0
  file: /usr/share/gpaw-setups/B.PBE.gz
  cutoffs: 0.64(comp), 1.14(filt), 1.38(core), lmax=2
  valence states:
                energy  radius
    2s(2.00)    -9.443   0.635
    2p(1.00)    -3.606   0.635
    *s          17.768   0.635
    *p          23.605   0.635
    *d           0.000   0.635

  Using partial waves for B as LCAO basis

Reference energy: -669.489567

Spin-polarized calculation.
Magnetic moment:  0.000000

Occupation numbers:
  Fixed Fermi level
  Fermi-Dirac: width=0.0200 eV

Convergence criteria:
  Maximum total energy change: 0.0005 eV / electron
  Maximum integral of absolute density change: 0.0001 electrons
  Maximum integral of absolute eigenstate change: 4e-08 eV^2
  Maximum number of iterations: 1500

Symmetries present (total): 1

  ( 1  0  0)
  ( 0  1  0)
  ( 0  0  1)

50 k-points
50 k-points in the irreducible part of the Brillouin zone
       k-points in crystal coordinates                weights
   0:     0.00000000    0.00000000    0.00000000          1/50
   1:     0.03571429   -0.03571429    0.03571429          1/50
   2:     0.07142857   -0.07142857    0.07142857          1/50
   3:     0.10714286   -0.10714286    0.10714286          1/50
   4:     0.14285714   -0.14285714    0.14285714          1/50
   5:     0.17857143   -0.17857143    0.17857143          1/50
   6:     0.21428571   -0.21428571    0.21428571          1/50
   7:     0.25000000   -0.25000000    0.25000000          1/50
   8:     0.28571429   -0.28571429    0.28571429          1/50
   9:     0.32142857   -0.32142857    0.32142857          1/50
          ...
  49:     0.25000000    0.25000000    0.25000000          1/50

Wave functions: Plane wave expansion
  Cutoff energy: 400.000 eV
  Number of coefficients (min, max): 104, 135
  Using FFTW library
  Eigensolver: None  MatrixOperator buffer_size: default value or 
                              see value of nblock in input file
Diagonalizer layout: Serial LAPACKOrthonormalizer layout: Serial LAPACK 

CG(niter=5, rtol=3.0e-01) 

No density mixing

Memory estimate:
  Process memory now: 977.19 MiB
  Calculator: 2.33 MiB
    Density: 0.38 MiB
      Arrays: 0.14 MiB
      Localized functions: 0.07 MiB
      Mixer: 0.17 MiB
    Hamiltonian: 0.10 MiB
      Arrays: 0.10 MiB
      XC: 0.00 MiB
      Poisson: 0.00 MiB
      vbar: 0.00 MiB
    Wavefunctions: 1.85 MiB
      Arrays psit_nG: 1.03 MiB
      Eigensolver: 0.02 MiB
      Projections: 0.10 MiB
      Projectors: 0.60 MiB
      Overlap op: 0.01 MiB
      PW-descriptor: 0.08 MiB

Total number of cores used: 1

Number of atoms: 1
Number of atomic orbitals: 4
Number of bands in calculation: 5
Bands to converge: all
Number of valence electrons: 3

... initialized

Initializing position-dependent things.

Creating initial wave functions:
  4 bands from LCAO basis set
  1 band from random numbers

                
                
                
       B        
                
                
                
                

Positions:
   0 B      0.000000    0.000000    0.000000

Unit cell:
           periodic     x           y           z      points  spacing
  1. axis:    yes   -1.152500    1.152500    1.152500     8     0.2037
  2. axis:    yes    1.152500   -1.152500    1.152500     8     0.2037
  3. axis:    yes    1.152500    1.152500   -1.152500     8     0.2037

  Lengths:   1.996189   1.996189   1.996189
  Angles:  109.471221 109.471221 109.471221

Effective grid spacing dv^(1/3) = 0.2287

                     log10-error:    total        iterations:
           time      wfs    density  energy       fermi  poisson  magmom
iter:   1  12:47:27  +3.76           -6.032313    32              +0.0055
iter:   2  12:47:28  +2.85           -6.134357    31              -0.0000
iter:   3  12:47:30  +1.96           -6.139546    28              +0.0000
iter:   4  12:47:32  +1.07           -6.139901    31              -0.0000
iter:   5  12:47:34  +0.32           -6.139934    30              -0.0000
iter:   6  12:47:35  -0.18           -6.139937    31              -0.0000
iter:   7  12:47:37  -1.10           -6.139937    31              -0.0000
iter:   8  12:47:38  -1.28           -6.139937    32              +0.0000
iter:   9  12:47:40  +0.05           -6.139937    31              +0.0000
iter:  10  12:47:41  +0.04           -6.139937    31              +0.0000
iter:  11  12:47:42  -1.67           -6.139937    31              +0.0000
iter:  12  12:47:43  -2.76           -6.139937    31              +0.0000
iter:  13  12:47:44  -3.75           -6.139937    31              +0.0000
iter:  14  12:47:45  -4.27           -6.139937    31              +0.0000
iter:  15  12:47:45  -4.38           -6.139937    31              +0.0000
iter:  16  12:47:46  -4.14           -6.139937    31              +0.0000
iter:  17  12:47:47  -4.60           -6.139937    31              +0.0000
iter:  18  12:47:47  -4.75           -6.139937    31              +0.0000
iter:  19  12:47:48  -4.64           -6.139937    31              +0.0000
iter:  20  12:47:48  -4.69           -6.139937    31              +0.0000
iter:  21  12:47:49  -4.74           -6.139937    31              +0.0000
iter:  22  12:47:50  -4.78           -6.139937    31              +0.0000
iter:  23  12:47:50  -4.66           -6.139937    31              +0.0000
iter:  24  12:47:51  -4.54           -6.139937    31              +0.0000
iter:  25  12:47:51  -4.72           -6.139937    31              +0.0000
iter:  26  12:47:52  -4.81           -6.139937    31              +0.0000
iter:  27  12:47:53  -4.79           -6.139937    31              +0.0000
iter:  28  12:47:53  -4.83           -6.139937    31              +0.0000
iter:  29  12:47:54  -4.56           -6.139937    31              +0.0000
iter:  30  12:47:54  -4.39           -6.139937    31              +0.0000
iter:  31  12:47:55  -4.79           -6.139937    31              +0.0000
iter:  32  12:47:56  -4.79           -6.139937    31              +0.0000
iter:  33  12:47:56  -4.83           -6.139937    31              +0.0000
iter:  34  12:47:57  -4.90           -6.139937    31              +0.0000
iter:  35  12:47:57  -4.87           -6.139937    31              +0.0000
iter:  36  12:47:58  -4.80           -6.139937    31              +0.0000
iter:  37  12:47:59  -4.89           -6.139937    31              +0.0000
iter:  38  12:47:59  -4.95           -6.139937    31              +0.0000
iter:  39  12:48:00  -4.92           -6.139937    31              +0.0000
iter:  40  12:48:00  -4.92           -6.139937    31              +0.0000
iter:  41  12:48:01  -4.94           -6.139937    31              +0.0000
iter:  42  12:48:02  -5.00           -6.139937    31              +0.0000
iter:  43  12:48:02  -4.98           -6.139937    31              +0.0000
iter:  44  12:48:03  -4.87           -6.139937    31              +0.0000
iter:  45  12:48:03  -4.99           -6.139937    31              +0.0000
iter:  46  12:48:04  -5.02           -6.139937    31              +0.0000
iter:  47  12:48:04  -4.89           -6.139937    31              +0.0000
iter:  48  12:48:05  -4.70           -6.139937    31              +0.0000
iter:  49  12:48:06  -5.04           -6.139937    31              +0.0000
iter:  50  12:48:06  -5.12           -6.139937    31              +0.0000
iter:  51  12:48:07  -5.11           -6.139937    31              +0.0000
iter:  52  12:48:07  -5.14           -6.139937    31              +0.0000
iter:  53  12:48:08  -5.12           -6.139937    31              +0.0000
iter:  54  12:48:09  -5.15           -6.139937    31              +0.0000
iter:  55  12:48:09  -5.12           -6.139937    31              +0.0000
iter:  56  12:48:10  -5.16           -6.139937    31              +0.0000
iter:  57  12:48:10  -5.20           -6.139937    31              +0.0000
iter:  58  12:48:11  -5.25           -6.139937    31              +0.0000
iter:  59  12:48:12  -5.22           -6.139937    31              +0.0000
iter:  60  12:48:12  -5.28           -6.139937    31              +0.0000
iter:  61  12:48:13  -5.27           -6.139937    31              +0.0000
iter:  62  12:48:13  -5.28           -6.139937    31              +0.0000
iter:  63  12:48:14  -5.30           -6.139937    31              +0.0000
iter:  64  12:48:14  -5.35           -6.139937    31              +0.0000
iter:  65  12:48:15  -5.34           -6.139937    31              +0.0000
iter:  66  12:48:16  -5.36           -6.139937    31              +0.0000
iter:  67  12:48:16  -5.36           -6.139937    31              +0.0000
iter:  68  12:48:17  -5.40           -6.139937    31              +0.0000
iter:  69  12:48:17  -5.31           -6.139937    31              +0.0000
iter:  70  12:48:18  -5.20           -6.139937    31              +0.0000
iter:  71  12:48:19  -5.36           -6.139937    31              +0.0000
iter:  72  12:48:19  -5.39           -6.139937    31              +0.0000
iter:  73  12:48:20  -5.08           -6.139937    31              +0.0000
iter:  74  12:48:20  -5.40           -6.139937    31              +0.0000
iter:  75  12:48:21  -5.50           -6.139937    31              +0.0000
iter:  76  12:48:21  -5.55           -6.139937    31              +0.0000
iter:  77  12:48:22  -5.51           -6.139937    31              +0.0000
iter:  78  12:48:23  -5.60           -6.139937    31              +0.0000
iter:  79  12:48:23  -5.60           -6.139937    31              +0.0000
iter:  80  12:48:24  -5.64           -6.139937    31              +0.0000
iter:  81  12:48:24  -5.59           -6.139937    31              +0.0000
iter:  82  12:48:25  -5.63           -6.139937    31              +0.0000
iter:  83  12:48:26  -5.67           -6.139937    31              +0.0000
iter:  84  12:48:26  -5.71           -6.139937    31              +0.0000
iter:  85  12:48:27  -5.58           -6.139937    31              +0.0000
iter:  86  12:48:27  -5.71           -6.139937    31              +0.0000
iter:  87  12:48:28  -5.76           -6.139937    31              +0.0000
iter:  88  12:48:28  -5.77           -6.139937    31              +0.0000
iter:  89  12:48:29  -5.77           -6.139937    31              +0.0000
iter:  90  12:48:30  -5.84           -6.139937    31              +0.0000
iter:  91  12:48:30  -5.83           -6.139937    31              +0.0000
iter:  92  12:48:31  -5.87           -6.139937    31              +0.0000
iter:  93  12:48:31  -5.85           -6.139937    31              +0.0000
iter:  94  12:48:32  -5.91           -6.139937    31              +0.0000
iter:  95  12:48:33  -5.91           -6.139937    31              +0.0000
iter:  96  12:48:33  -5.95           -6.139937    31              +0.0000
iter:  97  12:48:34  -5.95           -6.139937    31              +0.0000
iter:  98  12:48:34  -5.99           -6.139937    31              +0.0000
iter:  99  12:48:35  -5.99           -6.139937    31              +0.0000
iter: 100  12:48:35  -6.03           -6.139937    31              +0.0000
iter: 101  12:48:36  -6.03           -6.139937    31              +0.0000
iter: 102  12:48:37  -6.07           -6.139937    31              +0.0000
iter: 103  12:48:37  -6.06           -6.139937    31              +0.0000
iter: 104  12:48:38  -6.10           -6.139937    31              +0.0000
iter: 105  12:48:38  -6.10           -6.139937    31              +0.0000
iter: 106  12:48:39  -6.14           -6.139937    31              +0.0000
iter: 107  12:48:40  -6.13           -6.139937    31              +0.0000
iter: 108  12:48:40  -6.17           -6.139937    31              +0.0000
iter: 109  12:48:41  -6.17           -6.139937    31              +0.0000
iter: 110  12:48:41  -6.21           -6.139937    31              +0.0000
iter: 111  12:48:42  -6.21           -6.139937    31              +0.0000
iter: 112  12:48:43  -6.24           -6.139937    31              +0.0000
iter: 113  12:48:43  -6.24           -6.139937    31              +0.0000
iter: 114  12:48:44  -6.28           -6.139937    31              +0.0000
iter: 115  12:48:44  -6.28           -6.139937    31              +0.0000
iter: 116  12:48:45  -6.31           -6.139937    31              +0.0000
iter: 117  12:48:46  -6.31           -6.139937    31              +0.0000
iter: 118  12:48:46  -6.35           -6.139937    31              +0.0000
iter: 119  12:48:47  -6.35           -6.139937    31              +0.0000
iter: 120  12:48:47  -6.38           -6.139937    31              +0.0000
iter: 121  12:48:48  -6.38           -6.139937    31              +0.0000
iter: 122  12:48:48  -6.42           -6.139937    31              +0.0000
iter: 123  12:48:49  -6.41           -6.139937    31              +0.0000
iter: 124  12:48:50  -6.45           -6.139937    31              +0.0000
iter: 125  12:48:50  -6.45           -6.139937    31              +0.0000
iter: 126  12:48:51  -6.48           -6.139937    31              +0.0000
iter: 127  12:48:51  -6.48           -6.139937    31              +0.0000
iter: 128  12:48:52  -6.51           -6.139937    31              +0.0000
iter: 129  12:48:53  -6.51           -6.139937    31              +0.0000
iter: 130  12:48:53  -6.54           -6.139937    31              +0.0000
iter: 131  12:48:54  -6.54           -6.139937    31              +0.0000
iter: 132  12:48:54  -6.57           -6.139937    31              +0.0000
iter: 133  12:48:55  -6.57           -6.139937    31              +0.0000
iter: 134  12:48:56  -6.60           -6.139937    31              +0.0000
iter: 135  12:48:56  -6.60           -6.139937    31              +0.0000
iter: 136  12:48:57  -6.63           -6.139937    31              +0.0000
iter: 137  12:48:57  -6.63           -6.139937    31              +0.0000
iter: 138  12:48:58  -6.66           -6.139937    31              +0.0000
iter: 139  12:48:58  -6.66           -6.139937    31              +0.0000
iter: 140  12:48:59  -6.69           -6.139937    31              +0.0000
iter: 141  12:49:00  -6.68           -6.139937    31              +0.0000
iter: 142  12:49:00  -6.71           -6.139937    31              +0.0000
iter: 143  12:49:01  -6.71           -6.139937    31              +0.0000
iter: 144  12:49:01  -6.74           -6.139937    31              +0.0000
iter: 145  12:49:02  -6.73           -6.139937    31              +0.0000
iter: 146  12:49:03  -6.76           -6.139937    31              +0.0000
iter: 147  12:49:03  -6.76           -6.139937    31              +0.0000
iter: 148  12:49:04  -6.79           -6.139937    31              +0.0000
iter: 149  12:49:04  -6.78           -6.139937    31              +0.0000
iter: 150  12:49:05  -6.81           -6.139937    31              +0.0000
iter: 151  12:49:06  -6.80           -6.139937    31              +0.0000
iter: 152  12:49:06  -6.83           -6.139937    31              +0.0000
iter: 153  12:49:07  -6.82           -6.139937    31              +0.0000
iter: 154  12:49:07  -6.85           -6.139937    31              +0.0000
iter: 155  12:49:08  -6.84           -6.139937    31              +0.0000
iter: 156  12:49:08  -6.87           -6.139937    31              +0.0000
iter: 157  12:49:09  -6.86           -6.139937    31              +0.0000
iter: 158  12:49:10  -6.89           -6.139937    31              +0.0000
iter: 159  12:49:10  -6.88           -6.139937    31              +0.0000
iter: 160  12:49:11  -6.90           -6.139937    31              +0.0000
iter: 161  12:49:11  -6.90           -6.139937    31              +0.0000
iter: 162  12:49:12  -6.92           -6.139937    31              +0.0000
iter: 163  12:49:13  -6.91           -6.139937    31              +0.0000
iter: 164  12:49:13  -6.94           -6.139937    31              +0.0000
iter: 165  12:49:14  -6.93           -6.139937    31              +0.0000
iter: 166  12:49:14  -6.95           -6.139937    31              +0.0000
iter: 167  12:49:15  -6.94           -6.139937    31              +0.0000
iter: 168  12:49:16  -6.97           -6.139937    31              +0.0000
iter: 169  12:49:16  -6.96           -6.139937    31              +0.0000
iter: 170  12:49:17  -6.98           -6.139937    31              +0.0000
iter: 171  12:49:17  -6.97           -6.139937    31              +0.0000
iter: 172  12:49:18  -6.99           -6.139937    31              +0.0000
iter: 173  12:49:19  -6.98           -6.139937    31              +0.0000
iter: 174  12:49:19  -7.00           -6.139937    31              +0.0000
iter: 175  12:49:20  -6.99           -6.139937    31              +0.0000
iter: 176  12:49:20  -7.01           -6.139937    31              +0.0000
iter: 177  12:49:21  -7.00           -6.139937    31              +0.0000
iter: 178  12:49:21  -7.02           -6.139937    31              +0.0000
iter: 179  12:49:22  -7.01           -6.139937    31              +0.0000
iter: 180  12:49:23  -7.03           -6.139937    31              +0.0000
iter: 181  12:49:23  -7.02           -6.139937    31              +0.0000
iter: 182  12:49:24  -7.04           -6.139937    31              +0.0000
iter: 183  12:49:24  -7.03           -6.139937    31              +0.0000
iter: 184  12:49:25  -7.05           -6.139937    31              +0.0000
iter: 185  12:49:26  -7.04           -6.139937    31              +0.0000
iter: 186  12:49:26  -7.06           -6.139937    31              +0.0000
iter: 187  12:49:27  -7.05           -6.139937    31              +0.0000
iter: 188  12:49:27  -7.06           -6.139937    31              +0.0000
iter: 189  12:49:28  -7.05           -6.139937    31              +0.0000
iter: 190  12:49:29  -7.07           -6.139937    31              +0.0000
iter: 191  12:49:29  -7.06           -6.139937    31              +0.0000
iter: 192  12:49:30  -7.07           -6.139937    31              +0.0000
iter: 193  12:49:31  -7.07           -6.139937    31              +0.0000
iter: 194  12:49:31  -7.08           -6.139937    31              +0.0000
iter: 195  12:49:32  -7.07           -6.139937    31              +0.0000
iter: 196  12:49:32  -7.09           -6.139937    31              +0.0000
iter: 197  12:49:33  -7.08           -6.139937    31              +0.0000
iter: 198  12:49:33  -7.09           -6.139937    31              +0.0000
iter: 199  12:49:34  -7.08           -6.139937    31              +0.0000
iter: 200  12:49:35  -7.09           -6.139937    31              +0.0000
iter: 201  12:49:35  -7.08           -6.139937    31              +0.0000
iter: 202  12:49:36  -7.10           -6.139937    31              +0.0000
iter: 203  12:49:36  -7.09           -6.139937    31              +0.0000
iter: 204  12:49:37  -7.10           -6.139937    31              +0.0000
iter: 205  12:49:37  -7.09           -6.139937    31              +0.0000
iter: 206  12:49:38  -7.11           -6.139937    31              +0.0000
iter: 207  12:49:39  -7.09           -6.139937    31              +0.0000
iter: 208  12:49:39  -7.11           -6.139937    31              +0.0000
iter: 209  12:49:40  -7.10           -6.139937    31              +0.0000
iter: 210  12:49:40  -7.11           -6.139937    31              +0.0000
iter: 211  12:49:41  -7.10           -6.139937    31              +0.0000
iter: 212  12:49:42  -7.11           -6.139937    31              +0.0000
iter: 213  12:49:42  -7.10           -6.139937    31              +0.0000
iter: 214  12:49:43  -7.12           -6.139937    31              +0.0000
iter: 215  12:49:43  -7.11           -6.139937    31              +0.0000
iter: 216  12:49:44  -7.12           -6.139937    31              +0.0000
iter: 217  12:49:44  -7.11           -6.139937    31              +0.0000
iter: 218  12:49:45  -7.12           -6.139937    31              +0.0000
iter: 219  12:49:46  -7.11           -6.139937    31              +0.0000
iter: 220  12:49:46  -7.12           -6.139937    31              +0.0000
iter: 221  12:49:47  -7.11           -6.139937    31              +0.0000
iter: 222  12:49:47  -7.12           -6.139937    31              +0.0000
iter: 223  12:49:48  -7.11           -6.139937    31              +0.0000
iter: 224  12:49:49  -7.13           -6.139937    31              +0.0000
iter: 225  12:49:49  -7.11           -6.139937    31              +0.0000
iter: 226  12:49:50  -7.13           -6.139937    31              +0.0000
iter: 227  12:49:50  -7.12           -6.139937    31              +0.0000
iter: 228  12:49:51  -7.13           -6.139937    31              +0.0000
iter: 229  12:49:51  -7.12           -6.139937    31              +0.0000
iter: 230  12:49:52  -7.13           -6.139937    31              +0.0000
iter: 231  12:49:53  -7.12           -6.139937    31              +0.0000
iter: 232  12:49:53  -7.13           -6.139937    31              +0.0000
iter: 233  12:49:54  -7.12           -6.139937    31              +0.0000
iter: 234  12:49:54  -7.13           -6.139937    31              +0.0000
iter: 235  12:49:55  -7.12           -6.139937    31              +0.0000
iter: 236  12:49:55  -7.13           -6.139937    31              +0.0000
iter: 237  12:49:56  -7.12           -6.139937    31              +0.0000
iter: 238  12:49:57  -7.13           -6.139937    31              +0.0000
iter: 239  12:49:57  -7.12           -6.139937    31              +0.0000
iter: 240  12:49:58  -7.13           -6.139937    31              +0.0000
iter: 241  12:49:58  -7.12           -6.139937    31              +0.0000
iter: 242  12:49:59  -7.13           -6.139937    31              +0.0000
iter: 243  12:50:00  -7.12           -6.139937    31              +0.0000
iter: 244  12:50:00  -7.14           -6.139937    31              +0.0000
iter: 245  12:50:01  -7.12           -6.139937    31              +0.0000
iter: 246  12:50:01  -7.14           -6.139937    31              +0.0000
iter: 247  12:50:02  -7.12           -6.139937    31              +0.0000
iter: 248  12:50:02  -7.14           -6.139937    31              +0.0000
iter: 249  12:50:03  -7.13           -6.139937    31              +0.0000
iter: 250  12:50:04  -7.14           -6.139937    31              +0.0000
iter: 251  12:50:04  -7.13           -6.139937    31              +0.0000
iter: 252  12:50:05  -7.14           -6.139937    31              +0.0000
iter: 253  12:50:05  -7.13           -6.139937    31              +0.0000
iter: 254  12:50:06  -7.14           -6.139937    31              +0.0000
iter: 255  12:50:06  -7.13           -6.139937    31              +0.0000
iter: 256  12:50:07  -7.14           -6.139937    31              +0.0000
iter: 257  12:50:08  -7.13           -6.139937    31              +0.0000
iter: 258  12:50:08  -7.14           -6.139937    31              +0.0000
iter: 259  12:50:09  -7.13           -6.139937    31              +0.0000
iter: 260  12:50:09  -7.14           -6.139937    31              +0.0000
iter: 261  12:50:10  -7.13           -6.139937    31              +0.0000
iter: 262  12:50:11  -7.14           -6.139937    31              +0.0000
iter: 263  12:50:11  -7.13           -6.139937    31              +0.0000
iter: 264  12:50:12  -7.14           -6.139937    31              +0.0000
iter: 265  12:50:12  -7.13           -6.139937    31              +0.0000
iter: 266  12:50:13  -7.14           -6.139937    31              +0.0000
iter: 267  12:50:13  -7.13           -6.139937    31              +0.0000
iter: 268  12:50:14  -7.14           -6.139937    31              +0.0000
iter: 269  12:50:15  -7.13           -6.139937    31              +0.0000
iter: 270  12:50:15  -7.14           -6.139937    31              +0.0000
iter: 271  12:50:16  -7.13           -6.139937    31              +0.0000
iter: 272  12:50:16  -7.15           -6.139937    31              +0.0000
iter: 273  12:50:17  -7.13           -6.139937    31              +0.0000
iter: 274  12:50:17  -7.15           -6.139937    31              +0.0000
iter: 275  12:50:18  -7.13           -6.139937    31              +0.0000
iter: 276  12:50:19  -7.15           -6.139937    31              +0.0000
iter: 277  12:50:19  -7.13           -6.139937    31              +0.0000
iter: 278  12:50:20  -7.15           -6.139937    31              +0.0000
iter: 279  12:50:20  -7.13           -6.139937    31              +0.0000
iter: 280  12:50:21  -7.15           -6.139937    31              +0.0000
iter: 281  12:50:22  -7.13           -6.139937    31              +0.0000
iter: 282  12:50:22  -7.15           -6.139937    31              +0.0000
iter: 283  12:50:23  -7.13           -6.139937    31              +0.0000
iter: 284  12:50:23  -7.15           -6.139937    31              +0.0000
iter: 285  12:50:24  -7.14           -6.139937    31              +0.0000
iter: 286  12:50:24  -7.15           -6.139937    31              +0.0000
iter: 287  12:50:25  -7.14           -6.139937    31              +0.0000
iter: 288  12:50:26  -7.15           -6.139937    31              +0.0000
iter: 289  12:50:26  -7.14           -6.139937    31              +0.0000
iter: 290  12:50:27  -7.15           -6.139937    31              +0.0000
iter: 291  12:50:27  -7.14           -6.139937    31              +0.0000
iter: 292  12:50:28  -7.15           -6.139937    31              +0.0000
iter: 293  12:50:28  -7.14           -6.139937    31              +0.0000
iter: 294  12:50:29  -7.15           -6.139937    31              +0.0000
iter: 295  12:50:30  -6.50           -6.139937    31              +0.0000
iter: 296  12:50:30  -6.51           -6.139937    31              +0.0000
iter: 297  12:50:31  -7.20           -6.139937    31              +0.0000
iter: 298  12:50:31  -6.83           -6.139937    31              +0.0000
iter: 299  12:50:32  -7.06           -6.139937    31              +0.0000
iter: 300  12:50:32  -7.04           -6.139937    31              +0.0000
iter: 301  12:50:33  -7.08           -6.139937    31              +0.0000
iter: 302  12:50:34  -6.98           -6.139937    31              +0.0000
iter: 303  12:50:34  -7.03           -6.139937    31              +0.0000
iter: 304  12:50:35  -6.84           -6.139937    31              +0.0000
iter: 305  12:50:35  -6.35           -6.139937    31              +0.0000
iter: 306  12:50:36  -6.61           -6.139937    31              +0.0000
iter: 307  12:50:36  -7.14           -6.139937    31              +0.0000
iter: 308  12:50:37  -7.17           -6.139937    31              +0.0000
iter: 309  12:50:38  -7.17           -6.139937    31              +0.0000
iter: 310  12:50:38  -7.17           -6.139937    31              +0.0000
iter: 311  12:50:39  -7.17           -6.139937    31              +0.0000
iter: 312  12:50:39  -7.17           -6.139937    31              +0.0000
iter: 313  12:50:40  -7.17           -6.139937    31              +0.0000
iter: 314  12:50:40  -6.24           -6.139937    31              +0.0000
iter: 315  12:50:41  -7.08           -6.139937    31              +0.0000
iter: 316  12:50:42  -7.22           -6.139937    31              +0.0000
iter: 317  12:50:42  -7.22           -6.139937    31              +0.0000
iter: 318  12:50:43  -7.23           -6.139937    31              +0.0000
iter: 319  12:50:43  -7.22           -6.139937    31              +0.0000
iter: 320  12:50:44  -7.23           -6.139937    31              +0.0000
iter: 321  12:50:44  -7.22           -6.139937    31              +0.0000
iter: 322  12:50:45  -7.23           -6.139937    31              +0.0000
iter: 323  12:50:45  -7.22           -6.139937    31              +0.0000
iter: 324  12:50:46  -7.23           -6.139937    31              +0.0000
iter: 325  12:50:47  -7.22           -6.139937    31              +0.0000
iter: 326  12:50:47  -7.23           -6.139937    31              +0.0000
iter: 327  12:50:48  -7.22           -6.139937    31              +0.0000
iter: 328  12:50:48  -7.23           -6.139937    31              +0.0000
iter: 329  12:50:49  -7.22           -6.139937    31              +0.0000
iter: 330  12:50:49  -7.23           -6.139937    31              +0.0000
iter: 331  12:50:50  -7.22           -6.139937    31              +0.0000
iter: 332  12:50:50  -7.23           -6.139937    31              +0.0000
iter: 333  12:50:51  -7.22           -6.139937    31              +0.0000
iter: 334  12:50:52  -7.23           -6.139937    31              +0.0000
iter: 335  12:50:52  -7.22           -6.139937    31              +0.0000
iter: 336  12:50:53  -7.23           -6.139937    31              +0.0000
iter: 337  12:50:53  -7.22           -6.139937    31              +0.0000
iter: 338  12:50:54  -7.23           -6.139937    31              +0.0000
iter: 339  12:50:54  -7.22           -6.139937    31              +0.0000
iter: 340  12:50:55  -7.23           -6.139937    31              +0.0000
iter: 341  12:50:56  -7.22           -6.139937    31              +0.0000
iter: 342  12:50:56  -7.23           -6.139937    31              +0.0000
iter: 343  12:50:57  -7.22           -6.139937    31              +0.0000
iter: 344  12:50:57  -7.23           -6.139937    31              +0.0000
iter: 345  12:50:58  -7.22           -6.139937    31              +0.0000
iter: 346  12:50:58  -7.23           -6.139937    31              +0.0000
iter: 347  12:50:59  -7.22           -6.139937    31              +0.0000
iter: 348  12:51:00  -7.23           -6.139937    31              +0.0000
iter: 349  12:51:00  -7.22           -6.139937    31              +0.0000
iter: 350  12:51:01  -7.23           -6.139937    31              +0.0000
iter: 351  12:51:01  -7.22           -6.139937    31              +0.0000
iter: 352  12:51:02  -7.23           -6.139937    31              +0.0000
iter: 353  12:51:02  -7.22           -6.139937    31              +0.0000
iter: 354  12:51:03  -7.23           -6.139937    31              +0.0000
iter: 355  12:51:03  -7.22           -6.139937    31              +0.0000
iter: 356  12:51:04  -7.23           -6.139937    31              +0.0000
iter: 357  12:51:05  -7.22           -6.139937    31              +0.0000
iter: 358  12:51:05  -7.23           -6.139937    31              +0.0000
iter: 359  12:51:06  -7.22           -6.139937    31              +0.0000
iter: 360  12:51:06  -7.23           -6.139937    31              +0.0000
iter: 361  12:51:07  -7.23           -6.139937    31              +0.0000
iter: 362  12:51:07  -7.23           -6.139937    31              +0.0000
iter: 363  12:51:08  -7.23           -6.139937    31              +0.0000
iter: 364  12:51:09  -7.24           -6.139937    31              +0.0000
iter: 365  12:51:09  -7.23           -6.139937    31              +0.0000
iter: 366  12:51:10  -7.24           -6.139937    31              +0.0000
iter: 367  12:51:10  -7.23           -6.139937    31              +0.0000
iter: 368  12:51:11  -7.24           -6.139937    31              +0.0000
iter: 369  12:51:11  -7.23           -6.139937    31              +0.0000
iter: 370  12:51:12  -7.24           -6.139937    31              +0.0000
iter: 371  12:51:12  -7.23           -6.139937    31              +0.0000
iter: 372  12:51:13  -7.24           -6.139937    31              +0.0000
iter: 373  12:51:14  -7.23           -6.139937    31              +0.0000
iter: 374  12:51:14  -7.24           -6.139937    31              +0.0000
iter: 375  12:51:15  -7.23           -6.139937    31              +0.0000
iter: 376  12:51:15  -7.24           -6.139937    31              +0.0000
iter: 377  12:51:16  -7.23           -6.139937    31              +0.0000
iter: 378  12:51:16  -7.24           -6.139937    31              +0.0000
iter: 379  12:51:17  -7.23           -6.139937    31              +0.0000
iter: 380  12:51:18  -7.24           -6.139937    31              +0.0000
iter: 381  12:51:18  -7.23           -6.139937    31              +0.0000
iter: 382  12:51:19  -7.24           -6.139937    31              +0.0000
iter: 383  12:51:19  -7.23           -6.139937    31              +0.0000
iter: 384  12:51:20  -7.24           -6.139937    31              +0.0000
iter: 385  12:51:20  -7.23           -6.139937    31              +0.0000
iter: 386  12:51:21  -7.24           -6.139937    31              +0.0000
iter: 387  12:51:21  -7.23           -6.139937    31              +0.0000
iter: 388  12:51:22  -7.24           -6.139937    31              +0.0000
iter: 389  12:51:23  -7.23           -6.139937    31              +0.0000
iter: 390  12:51:23  -7.24           -6.139937    31              +0.0000
iter: 391  12:51:24  -7.23           -6.139937    31              +0.0000
iter: 392  12:51:24  -7.24           -6.139937    31              +0.0000
iter: 393  12:51:25  -7.23           -6.139937    31              +0.0000
iter: 394  12:51:25  -7.24           -6.139937    31              +0.0000
iter: 395  12:51:26  -7.23           -6.139937    31              +0.0000
iter: 396  12:51:26  -7.24           -6.139937    31              +0.0000
iter: 397  12:51:27  -7.23           -6.139937    31              +0.0000
iter: 398  12:51:28  -7.24           -6.139937    31              +0.0000
iter: 399  12:51:28  -7.23           -6.139937    31              +0.0000
iter: 400  12:51:29  -7.24           -6.139937    31              +0.0000
iter: 401  12:51:29  -7.23           -6.139937    31              +0.0000
iter: 402  12:51:30  -7.24           -6.139937    31              +0.0000
iter: 403  12:51:30  -7.23           -6.139937    31              +0.0000
iter: 404  12:51:31  -7.24           -6.139937    31              +0.0000
iter: 405  12:51:32  -7.23           -6.139937    31              +0.0000
iter: 406  12:51:32  -7.24           -6.139937    31              +0.0000
iter: 407  12:51:33  -7.23           -6.139937    31              +0.0000
iter: 408  12:51:33  -7.24           -6.139937    31              +0.0000
iter: 409  12:51:34  -7.23           -6.139937    31              +0.0000
iter: 410  12:51:34  -7.24           -6.139937    31              +0.0000
iter: 411  12:51:35  -7.23           -6.139937    31              +0.0000
iter: 412  12:51:35  -7.24           -6.139937    31              +0.0000
iter: 413  12:51:36  -7.24           -6.139937    31              +0.0000
iter: 414  12:51:37  -7.25           -6.139937    31              +0.0000
iter: 415  12:51:37  -7.24           -6.139937    31              +0.0000
iter: 416  12:51:38  -7.25           -6.139937    31              +0.0000
iter: 417  12:51:38  -7.24           -6.139937    31              +0.0000
iter: 418  12:51:39  -7.25           -6.139937    31              +0.0000
iter: 419  12:51:39  -7.24           -6.139937    31              +0.0000
iter: 420  12:51:40  -7.25           -6.139937    31              +0.0000
iter: 421  12:51:41  -7.24           -6.139937    31              +0.0000
iter: 422  12:51:41  -7.25           -6.139937    31              +0.0000
iter: 423  12:51:42  -7.24           -6.139937    31              +0.0000
iter: 424  12:51:42  -7.25           -6.139937    31              +0.0000
iter: 425  12:51:43  -7.24           -6.139937    31              +0.0000
iter: 426  12:51:43  -7.25           -6.139937    31              +0.0000
iter: 427  12:51:44  -7.24           -6.139937    31              +0.0000
iter: 428  12:51:44  -7.25           -6.139937    31              +0.0000
iter: 429  12:51:45  -7.24           -6.139937    31              +0.0000
iter: 430  12:51:46  -7.25           -6.139937    31              +0.0000
iter: 431  12:51:46  -7.24           -6.139937    31              +0.0000
iter: 432  12:51:47  -7.25           -6.139937    31              +0.0000
iter: 433  12:51:47  -7.24           -6.139937    31              +0.0000
iter: 434  12:51:48  -7.25           -6.139937    31              +0.0000
iter: 435  12:51:48  -7.24           -6.139937    31              +0.0000
iter: 436  12:51:49  -7.25           -6.139937    31              +0.0000
iter: 437  12:51:50  -7.24           -6.139937    31              +0.0000
iter: 438  12:51:50  -7.25           -6.139937    31              +0.0000
iter: 439  12:51:51  -7.24           -6.139937    31              +0.0000
iter: 440  12:51:51  -7.25           -6.139937    31              +0.0000
iter: 441  12:51:52  -7.24           -6.139937    31              +0.0000
iter: 442  12:51:52  -7.25           -6.139937    31              +0.0000
iter: 443  12:51:53  -7.24           -6.139937    31              +0.0000
iter: 444  12:51:53  -7.25           -6.139937    31              +0.0000
iter: 445  12:51:54  -7.24           -6.139937    31              +0.0000
iter: 446  12:51:55  -7.25           -6.139937    31              +0.0000
iter: 447  12:51:55  -7.24           -6.139937    31              +0.0000
iter: 448  12:51:56  -7.25           -6.139937    31              +0.0000
iter: 449  12:51:56  -7.24           -6.139937    31              +0.0000
iter: 450  12:51:57  -7.25           -6.139937    31              +0.0000
iter: 451  12:51:57  -7.24           -6.139937    31              +0.0000
iter: 452  12:51:58  -7.25           -6.139937    31              +0.0000
iter: 453  12:51:58  -7.24           -6.139937    31              +0.0000
iter: 454  12:51:59  -7.25           -6.139937    31              +0.0000
iter: 455  12:52:00  -7.24           -6.139937    31              +0.0000
iter: 456  12:52:01  -7.25           -6.139937    31              +0.0000
iter: 457  12:52:01  -7.24           -6.139937    31              +0.0000
iter: 458  12:52:02  -7.25           -6.139937    31              +0.0000
iter: 459  12:52:03  -7.24           -6.139937    31              +0.0000
iter: 460  12:52:03  -7.25           -6.139937    31              +0.0000
iter: 461  12:52:04  -7.24           -6.139937    31              +0.0000
iter: 462  12:52:04  -7.25           -6.139937    31              +0.0000
iter: 463  12:52:05  -7.24           -6.139937    31              +0.0000
iter: 464  12:52:06  -7.25           -6.139937    31              +0.0000
iter: 465  12:52:06  -7.24           -6.139937    31              +0.0000
iter: 466  12:52:07  -7.25           -6.139937    31              +0.0000
iter: 467  12:52:07  -7.24           -6.139937    31              +0.0000
iter: 468  12:52:08  -7.26           -6.139937    31              +0.0000
iter: 469  12:52:08  -7.25           -6.139937    31              +0.0000
iter: 470  12:52:09  -7.26           -6.139937    31              +0.0000
iter: 471  12:52:09  -7.25           -6.139937    31              +0.0000
iter: 472  12:52:10  -7.26           -6.139937    31              +0.0000
iter: 473  12:52:11  -7.25           -6.139937    31              +0.0000
iter: 474  12:52:11  -7.26           -6.139937    31              +0.0000
iter: 475  12:52:12  -7.25           -6.139937    31              +0.0000
iter: 476  12:52:12  -7.26           -6.139937    31              +0.0000
iter: 477  12:52:13  -7.25           -6.139937    31              +0.0000
iter: 478  12:52:13  -7.26           -6.139937    31              +0.0000
iter: 479  12:52:14  -7.25           -6.139937    31              +0.0000
iter: 480  12:52:15  -7.26           -6.139937    31              +0.0000
iter: 481  12:52:15  -7.25           -6.139937    31              +0.0000
iter: 482  12:52:16  -7.26           -6.139937    31              +0.0000
iter: 483  12:52:16  -7.25           -6.139937    31              +0.0000
iter: 484  12:52:17  -7.26           -6.139937    31              +0.0000
iter: 485  12:52:17  -7.25           -6.139937    31              +0.0000
iter: 486  12:52:18  -7.26           -6.139937    31              +0.0000
iter: 487  12:52:18  -7.25           -6.139937    31              +0.0000
iter: 488  12:52:19  -7.26           -6.139937    31              +0.0000
iter: 489  12:52:20  -7.25           -6.139937    31              +0.0000
iter: 490  12:52:20  -7.26           -6.139937    31              +0.0000
iter: 491  12:52:21  -7.25           -6.139937    31              +0.0000
iter: 492  12:52:21  -7.26           -6.139937    31              +0.0000
iter: 493  12:52:22  -7.25           -6.139937    31              +0.0000
iter: 494  12:52:22  -7.26           -6.139937    31              +0.0000
iter: 495  12:52:23  -7.25           -6.139937    31              +0.0000
iter: 496  12:52:23  -7.26           -6.139937    31              +0.0000
iter: 497  12:52:24  -7.25           -6.139937    31              +0.0000
iter: 498  12:52:25  -7.26           -6.139937    31              +0.0000
iter: 499  12:52:25  -7.25           -6.139937    31              +0.0000
iter: 500  12:52:26  -7.26           -6.139937    31              +0.0000
iter: 501  12:52:26  -7.25           -6.139937    31              +0.0000
iter: 502  12:52:27  -7.26           -6.139937    31              +0.0000
iter: 503  12:52:27  -7.25           -6.139937    31              +0.0000
iter: 504  12:52:28  -7.26           -6.139937    31              +0.0000
iter: 505  12:52:29  -7.25           -6.139937    31              +0.0000
iter: 506  12:52:29  -7.26           -6.139937    31              +0.0000
iter: 507  12:52:30  -7.25           -6.139937    31              +0.0000
iter: 508  12:52:30  -7.26           -6.139937    31              +0.0000
iter: 509  12:52:31  -7.25           -6.139937    31              +0.0000
iter: 510  12:52:31  -7.26           -6.139937    31              +0.0000
iter: 511  12:52:32  -7.25           -6.139937    31              +0.0000
iter: 512  12:52:32  -7.26           -6.139937    31              +0.0000
iter: 513  12:52:33  -7.25           -6.139937    31              +0.0000
iter: 514  12:52:34  -7.26           -6.139937    31              +0.0000
iter: 515  12:52:34  -7.25           -6.139937    31              +0.0000
iter: 516  12:52:35  -7.26           -6.139937    31              +0.0000
iter: 517  12:52:35  -7.25           -6.139937    31              +0.0000
iter: 518  12:52:36  -7.26           -6.139937    31              +0.0000
iter: 519  12:52:36  -7.25           -6.139937    31              +0.0000
iter: 520  12:52:37  -7.26           -6.139937    31              +0.0000
iter: 521  12:52:37  -7.25           -6.139937    31              +0.0000
iter: 522  12:52:38  -7.26           -6.139937    31              +0.0000
iter: 523  12:52:39  -7.25           -6.139937    31              +0.0000
iter: 524  12:52:39  -7.26           -6.139937    31              +0.0000
iter: 525  12:52:40  -7.25           -6.139937    31              +0.0000
iter: 526  12:52:40  -7.27           -6.139937    31              +0.0000
iter: 527  12:52:41  -7.25           -6.139937    31              +0.0000
iter: 528  12:52:41  -7.27           -6.139937    31              +0.0000
iter: 529  12:52:42  -7.26           -6.139937    31              +0.0000
iter: 530  12:52:42  -7.27           -6.139937    31              +0.0000
iter: 531  12:52:43  -7.26           -6.139937    31              +0.0000
iter: 532  12:52:44  -7.27           -6.139937    31              +0.0000
iter: 533  12:52:44  -7.26           -6.139937    31              +0.0000
iter: 534  12:52:45  -7.27           -6.139937    31              +0.0000
iter: 535  12:52:45  -7.26           -6.139937    31              +0.0000
iter: 536  12:52:46  -7.27           -6.139937    31              +0.0000
iter: 537  12:52:46  -7.26           -6.139937    31              +0.0000
iter: 538  12:52:47  -7.27           -6.139937    31              +0.0000
iter: 539  12:52:48  -7.26           -6.139937    31              +0.0000
iter: 540  12:52:48  -7.27           -6.139937    31              +0.0000
iter: 541  12:52:49  -7.26           -6.139937    31              +0.0000
iter: 542  12:52:49  -7.27           -6.139937    31              +0.0000
iter: 543  12:52:50  -7.26           -6.139937    31              +0.0000
iter: 544  12:52:50  -7.27           -6.139937    31              +0.0000
iter: 545  12:52:51  -7.26           -6.139937    31              +0.0000
iter: 546  12:52:51  -7.27           -6.139937    31              +0.0000
iter: 547  12:52:52  -7.26           -6.139937    31              +0.0000
iter: 548  12:52:53  -7.27           -6.139937    31              +0.0000
iter: 549  12:52:53  -7.26           -6.139937    31              +0.0000
iter: 550  12:52:54  -7.27           -6.139937    31              +0.0000
iter: 551  12:52:54  -7.26           -6.139937    31              +0.0000
iter: 552  12:52:55  -7.27           -6.139937    31              +0.0000
iter: 553  12:52:55  -7.26           -6.139937    31              +0.0000
iter: 554  12:52:56  -7.27           -6.139937    31              +0.0000
iter: 555  12:52:56  -7.26           -6.139937    31              +0.0000
iter: 556  12:52:57  -7.27           -6.139937    31              +0.0000
iter: 557  12:52:58  -7.26           -6.139937    31              +0.0000
iter: 558  12:52:58  -7.27           -6.139937    31              +0.0000
iter: 559  12:52:59  -7.26           -6.139937    31              +0.0000
iter: 560  12:52:59  -7.27           -6.139937    31              +0.0000
iter: 561  12:53:00  -7.26           -6.139937    31              +0.0000
iter: 562  12:53:00  -7.27           -6.139937    31              +0.0000
iter: 563  12:53:01  -7.26           -6.139937    31              +0.0000
iter: 564  12:53:02  -7.27           -6.139937    31              +0.0000
iter: 565  12:53:02  -7.26           -6.139937    31              +0.0000
iter: 566  12:53:03  -7.27           -6.139937    31              +0.0000
iter: 567  12:53:03  -7.26           -6.139937    31              +0.0000
iter: 568  12:53:04  -7.27           -6.139937    31              +0.0000
iter: 569  12:53:04  -7.26           -6.139937    31              +0.0000
iter: 570  12:53:05  -7.27           -6.139937    31              +0.0000
iter: 571  12:53:05  -7.26           -6.139937    31              +0.0000
iter: 572  12:53:06  -7.27           -6.139937    31              +0.0000
iter: 573  12:53:07  -7.26           -6.139937    31              +0.0000
iter: 574  12:53:07  -7.27           -6.139937    31              +0.0000
iter: 575  12:53:08  -7.26           -6.139937    31              +0.0000
iter: 576  12:53:08  -7.27           -6.139937    31              +0.0000
iter: 577  12:53:09  -7.26           -6.139937    31              +0.0000
iter: 578  12:53:09  -7.27           -6.139937    31              +0.0000
iter: 579  12:53:10  -7.26           -6.139937    31              +0.0000
iter: 580  12:53:11  -7.27           -6.139937    31              +0.0000
iter: 581  12:53:11  -7.26           -6.139937    31              +0.0000
iter: 582  12:53:12  -7.27           -6.139937    31              +0.0000
iter: 583  12:53:12  -7.26           -6.139937    31              +0.0000
iter: 584  12:53:13  -7.28           -6.139937    31              +0.0000
iter: 585  12:53:13  -7.26           -6.139937    31              +0.0000
iter: 586  12:53:14  -7.28           -6.139937    31              +0.0000
iter: 587  12:53:15  -7.26           -6.139937    31              +0.0000
iter: 588  12:53:15  -7.28           -6.139937    31              +0.0000
iter: 589  12:53:16  -7.26           -6.139937    31              +0.0000
iter: 590  12:53:16  -7.28           -6.139937    31              +0.0000
iter: 591  12:53:17  -7.27           -6.139937    31              +0.0000
iter: 592  12:53:17  -7.28           -6.139937    31              +0.0000
iter: 593  12:53:18  -7.27           -6.139937    31              +0.0000
iter: 594  12:53:18  -7.28           -6.139937    31              +0.0000
iter: 595  12:53:19  -7.27           -6.139937    31              +0.0000
iter: 596  12:53:20  -7.28           -6.139937    31              +0.0000
iter: 597  12:53:20  -7.27           -6.139937    31              +0.0000
iter: 598  12:53:21  -7.28           -6.139937    31              +0.0000
iter: 599  12:53:21  -7.27           -6.139937    31              +0.0000
iter: 600  12:53:22  -7.28           -6.139937    31              +0.0000
iter: 601  12:53:22  -7.27           -6.139937    31              +0.0000
iter: 602  12:53:23  -7.28           -6.139937    31              +0.0000
iter: 603  12:53:23  -7.27           -6.139937    31              +0.0000
iter: 604  12:53:24  -7.28           -6.139937    31              +0.0000
iter: 605  12:53:25  -7.27           -6.139937    31              +0.0000
iter: 606  12:53:25  -7.28           -6.139937    31              +0.0000
iter: 607  12:53:26  -7.27           -6.139937    31              +0.0000
iter: 608  12:53:26  -7.28           -6.139937    31              +0.0000
iter: 609  12:53:27  -7.27           -6.139937    31              +0.0000
iter: 610  12:53:27  -7.28           -6.139937    31              +0.0000
iter: 611  12:53:28  -7.27           -6.139937    31              +0.0000
iter: 612  12:53:29  -7.28           -6.139937    31              +0.0000
iter: 613  12:53:29  -7.27           -6.139937    31              +0.0000
iter: 614  12:53:30  -7.28           -6.139937    31              +0.0000
iter: 615  12:53:30  -7.27           -6.139937    31              +0.0000
iter: 616  12:53:31  -7.28           -6.139937    31              +0.0000
iter: 617  12:53:31  -7.27           -6.139937    31              +0.0000
iter: 618  12:53:32  -7.28           -6.139937    31              +0.0000
iter: 619  12:53:32  -7.27           -6.139937    31              +0.0000
iter: 620  12:53:33  -7.28           -6.139937    31              +0.0000
iter: 621  12:53:34  -7.27           -6.139937    31              +0.0000
iter: 622  12:53:34  -7.28           -6.139937    31              +0.0000
iter: 623  12:53:35  -7.27           -6.139937    31              +0.0000
iter: 624  12:53:35  -7.28           -6.139937    31              +0.0000
iter: 625  12:53:36  -7.27           -6.139937    31              +0.0000
iter: 626  12:53:36  -7.28           -6.139937    31              +0.0000
iter: 627  12:53:37  -7.27           -6.139937    31              +0.0000
iter: 628  12:53:38  -7.28           -6.139937    31              +0.0000
iter: 629  12:53:38  -7.27           -6.139937    31              +0.0000
iter: 630  12:53:39  -7.28           -6.139937    31              +0.0000
iter: 631  12:53:39  -7.27           -6.139937    31              +0.0000
iter: 632  12:53:40  -7.28           -6.139937    31              +0.0000
iter: 633  12:53:40  -7.27           -6.139937    31              +0.0000
iter: 634  12:53:41  -7.28           -6.139937    31              +0.0000
iter: 635  12:53:41  -7.27           -6.139937    31              +0.0000
iter: 636  12:53:42  -7.28           -6.139937    31              +0.0000
iter: 637  12:53:43  -7.27           -6.139937    31              +0.0000
iter: 638  12:53:43  -7.28           -6.139937    31              +0.0000
iter: 639  12:53:44  -7.27           -6.139937    31              +0.0000
iter: 640  12:53:44  -7.29           -6.139937    31              +0.0000
iter: 641  12:53:45  -7.27           -6.139937    31              +0.0000
iter: 642  12:53:45  -7.29           -6.139937    31              +0.0000
iter: 643  12:53:46  -7.27           -6.139937    31              +0.0000
iter: 644  12:53:46  -7.29           -6.139937    31              +0.0000
iter: 645  12:53:47  -7.27           -6.139937    31              +0.0000
iter: 646  12:53:48  -7.29           -6.139937    31              +0.0000
iter: 647  12:53:48  -7.27           -6.139937    31              +0.0000
iter: 648  12:53:49  -7.29           -6.139937    31              +0.0000
iter: 649  12:53:49  -7.27           -6.139937    31              +0.0000
iter: 650  12:53:50  -7.29           -6.139937    31              +0.0000
iter: 651  12:53:50  -7.27           -6.139937    31              +0.0000
iter: 652  12:53:51  -7.29           -6.139937    31              +0.0000
iter: 653  12:53:52  -7.28           -6.139937    31              +0.0000
iter: 654  12:53:52  -7.29           -6.139937    31              +0.0000
iter: 655  12:53:53  -7.28           -6.139937    31              +0.0000
iter: 656  12:53:53  -7.29           -6.139937    31              +0.0000
iter: 657  12:53:54  -7.28           -6.139937    31              +0.0000
iter: 658  12:53:54  -7.29           -6.139937    31              +0.0000
iter: 659  12:53:55  -7.28           -6.139937    31              +0.0000
iter: 660  12:53:55  -7.29           -6.139937    31              +0.0000
iter: 661  12:53:56  -7.28           -6.139937    31              +0.0000
iter: 662  12:53:57  -7.29           -6.139937    31              +0.0000
iter: 663  12:53:57  -7.28           -6.139937    31              +0.0000
iter: 664  12:53:58  -7.29           -6.139937    31              +0.0000
iter: 665  12:53:58  -7.28           -6.139937    31              +0.0000
iter: 666  12:53:59  -7.29           -6.139937    31              +0.0000
iter: 667  12:53:59  -7.28           -6.139937    31              +0.0000
iter: 668  12:54:00  -7.29           -6.139937    31              +0.0000
iter: 669  12:54:01  -7.28           -6.139937    31              +0.0000
iter: 670  12:54:01  -7.29           -6.139937    31              +0.0000
iter: 671  12:54:02  -7.28           -6.139937    31              +0.0000
iter: 672  12:54:02  -7.29           -6.139937    31              +0.0000
iter: 673  12:54:03  -7.28           -6.139937    31              +0.0000
iter: 674  12:54:03  -7.29           -6.139937    31              +0.0000
iter: 675  12:54:04  -7.28           -6.139937    31              +0.0000
iter: 676  12:54:04  -7.29           -6.139937    31              +0.0000
iter: 677  12:54:05  -7.28           -6.139937    31              +0.0000
iter: 678  12:54:06  -7.29           -6.139937    31              +0.0000
iter: 679  12:54:06  -7.28           -6.139937    31              +0.0000
iter: 680  12:54:07  -7.29           -6.139937    31              +0.0000
iter: 681  12:54:07  -7.28           -6.139937    31              +0.0000
iter: 682  12:54:08  -7.29           -6.139937    31              +0.0000
iter: 683  12:54:08  -7.28           -6.139937    31              +0.0000
iter: 684  12:54:09  -7.29           -6.139937    31              +0.0000
iter: 685  12:54:10  -7.28           -6.139937    31              +0.0000
iter: 686  12:54:10  -7.29           -6.139937    31              +0.0000
iter: 687  12:54:11  -7.28           -6.139937    31              +0.0000
iter: 688  12:54:11  -7.29           -6.139937    31              +0.0000
iter: 689  12:54:12  -7.28           -6.139937    31              +0.0000
iter: 690  12:54:12  -7.29           -6.139937    31              +0.0000
iter: 691  12:54:13  -7.28           -6.139937    31              +0.0000
iter: 692  12:54:13  -7.29           -6.139937    31              +0.0000
iter: 693  12:54:14  -7.28           -6.139937    31              +0.0000
iter: 694  12:54:15  -7.30           -6.139937    31              +0.0000
iter: 695  12:54:15  -7.28           -6.139937    31              +0.0000
iter: 696  12:54:16  -7.30           -6.139937    31              +0.0000
iter: 697  12:54:16  -7.28           -6.139937    31              +0.0000
iter: 698  12:54:17  -7.30           -6.139937    31              +0.0000
iter: 699  12:54:17  -7.28           -6.139937    31              +0.0000
iter: 700  12:54:18  -7.30           -6.139937    31              +0.0000
iter: 701  12:54:18  -7.28           -6.139937    31              +0.0000
iter: 702  12:54:19  -7.30           -6.139937    31              +0.0000
iter: 703  12:54:20  -7.28           -6.139937    31              +0.0000
iter: 704  12:54:20  -7.30           -6.139937    31              +0.0000
iter: 705  12:54:21  -7.28           -6.139937    31              +0.0000
iter: 706  12:54:21  -7.30           -6.139937    31              +0.0000
iter: 707  12:54:22  -7.28           -6.139937    31              +0.0000
iter: 708  12:54:22  -7.30           -6.139937    31              +0.0000
iter: 709  12:54:23  -7.28           -6.139937    31              +0.0000
iter: 710  12:54:24  -7.30           -6.139937    31              +0.0000
iter: 711  12:54:24  -7.29           -6.139937    31              +0.0000
iter: 712  12:54:25  -7.30           -6.139937    31              +0.0000
iter: 713  12:54:25  -7.29           -6.139937    31              +0.0000
iter: 714  12:54:26  -7.30           -6.139937    31              +0.0000
iter: 715  12:54:26  -7.29           -6.139937    31              +0.0000
iter: 716  12:54:27  -7.30           -6.139937    31              +0.0000
iter: 717  12:54:27  -7.29           -6.139937    31              +0.0000
iter: 718  12:54:28  -7.30           -6.139937    31              +0.0000
iter: 719  12:54:29  -7.29           -6.139937    31              +0.0000
iter: 720  12:54:29  -7.30           -6.139937    31              +0.0000
iter: 721  12:54:30  -7.29           -6.139937    31              +0.0000
iter: 722  12:54:30  -7.30           -6.139937    31              +0.0000
iter: 723  12:54:31  -7.29           -6.139937    31              +0.0000
iter: 724  12:54:31  -7.30           -6.139937    31              +0.0000
iter: 725  12:54:32  -7.29           -6.139937    31              +0.0000
iter: 726  12:54:33  -7.30           -6.139937    31              +0.0000
iter: 727  12:54:33  -7.29           -6.139937    31              +0.0000
iter: 728  12:54:34  -7.30           -6.139937    31              +0.0000
iter: 729  12:54:34  -7.29           -6.139937    31              +0.0000
iter: 730  12:54:35  -7.30           -6.139937    31              +0.0000
iter: 731  12:54:35  -7.29           -6.139937    31              +0.0000
iter: 732  12:54:36  -7.30           -6.139937    31              +0.0000
iter: 733  12:54:37  -7.29           -6.139937    31              +0.0000
iter: 734  12:54:37  -7.30           -6.139937    31              +0.0000
iter: 735  12:54:38  -7.29           -6.139937    31              +0.0000
iter: 736  12:54:38  -7.30           -6.139937    31              +0.0000
iter: 737  12:54:39  -7.29           -6.139937    31              +0.0000
iter: 738  12:54:39  -7.30           -6.139937    31              +0.0000
iter: 739  12:54:40  -7.29           -6.139937    31              +0.0000
iter: 740  12:54:40  -7.30           -6.139937    31              +0.0000
iter: 741  12:54:41  -7.29           -6.139937    31              +0.0000
iter: 742  12:54:42  -7.30           -6.139937    31              +0.0000
iter: 743  12:54:42  -7.29           -6.139937    31              +0.0000
iter: 744  12:54:43  -7.30           -6.139937    31              +0.0000
iter: 745  12:54:43  -7.29           -6.139937    31              +0.0000
iter: 746  12:54:44  -7.30           -6.139937    31              +0.0000
iter: 747  12:54:44  -7.29           -6.139937    31              +0.0000
iter: 748  12:54:45  -7.31           -6.139937    31              +0.0000
iter: 749  12:54:45  -7.29           -6.139937    31              +0.0000
iter: 750  12:54:46  -7.31           -6.139937    31              +0.0000
iter: 751  12:54:47  -7.29           -6.139937    31              +0.0000
iter: 752  12:54:47  -7.31           -6.139937    31              +0.0000
iter: 753  12:54:48  -7.29           -6.139937    31              +0.0000
iter: 754  12:54:48  -7.31           -6.139937    31              +0.0000
iter: 755  12:54:49  -7.29           -6.139937    31              +0.0000
iter: 756  12:54:49  -7.31           -6.139937    31              +0.0000
iter: 757  12:54:50  -7.29           -6.139937    31              +0.0000
iter: 758  12:54:50  -7.31           -6.139937    31              +0.0000
iter: 759  12:54:51  -7.29           -6.139937    31              +0.0000
iter: 760  12:54:52  -7.31           -6.139937    31              +0.0000
iter: 761  12:54:52  -7.29           -6.139937    31              +0.0000
iter: 762  12:54:53  -7.31           -6.139937    31              +0.0000
iter: 763  12:54:53  -7.29           -6.139937    31              +0.0000
iter: 764  12:54:54  -7.31           -6.139937    31              +0.0000
iter: 765  12:54:54  -7.29           -6.139937    31              +0.0000
iter: 766  12:54:55  -7.31           -6.139937    31              +0.0000
iter: 767  12:54:56  -7.30           -6.139937    31              +0.0000
iter: 768  12:54:56  -7.31           -6.139937    31              +0.0000
iter: 769  12:54:57  -7.30           -6.139937    31              +0.0000
iter: 770  12:54:57  -7.31           -6.139937    31              +0.0000
iter: 771  12:54:58  -7.30           -6.139937    31              +0.0000
iter: 772  12:54:58  -7.31           -6.139937    31              +0.0000
iter: 773  12:54:59  -7.30           -6.139937    31              +0.0000
iter: 774  12:54:59  -7.31           -6.139937    31              +0.0000
iter: 775  12:55:00  -7.30           -6.139937    31              +0.0000
iter: 776  12:55:01  -7.31           -6.139937    31              +0.0000
iter: 777  12:55:01  -7.30           -6.139937    31              +0.0000
iter: 778  12:55:02  -7.31           -6.139937    31              +0.0000
iter: 779  12:55:02  -7.30           -6.139937    31              +0.0000
iter: 780  12:55:03  -7.31           -6.139937    31              +0.0000
iter: 781  12:55:03  -7.30           -6.139937    31              +0.0000
iter: 782  12:55:04  -7.31           -6.139937    31              +0.0000
iter: 783  12:55:04  -7.30           -6.139937    31              +0.0000
iter: 784  12:55:05  -7.31           -6.139937    31              +0.0000
iter: 785  12:55:06  -7.30           -6.139937    31              +0.0000
iter: 786  12:55:06  -7.31           -6.139937    31              +0.0000
iter: 787  12:55:07  -7.30           -6.139937    31              +0.0000
iter: 788  12:55:07  -7.31           -6.139937    31              +0.0000
iter: 789  12:55:08  -7.30           -6.139937    31              +0.0000
iter: 790  12:55:08  -7.31           -6.139937    31              +0.0000
iter: 791  12:55:09  -7.30           -6.139937    31              +0.0000
iter: 792  12:55:10  -7.31           -6.139937    31              +0.0000
iter: 793  12:55:10  -7.30           -6.139937    31              +0.0000
iter: 794  12:55:11  -7.31           -6.139937    31              +0.0000
iter: 795  12:55:11  -7.30           -6.139937    31              +0.0000
iter: 796  12:55:12  -7.31           -6.139937    31              +0.0000
iter: 797  12:55:12  -7.30           -6.139937    31              +0.0000
iter: 798  12:55:13  -7.32           -6.139937    31              +0.0000
iter: 799  12:55:13  -7.30           -6.139937    31              +0.0000
iter: 800  12:55:14  -7.32           -6.139937    31              +0.0000
iter: 801  12:55:15  -7.30           -6.139937    31              +0.0000
iter: 802  12:55:15  -7.32           -6.139937    31              +0.0000
iter: 803  12:55:16  -7.30           -6.139937    31              +0.0000
iter: 804  12:55:16  -7.32           -6.139937    31              +0.0000
iter: 805  12:55:17  -7.30           -6.139937    31              +0.0000
iter: 806  12:55:17  -7.32           -6.139937    31              +0.0000
iter: 807  12:55:18  -7.30           -6.139937    31              +0.0000
iter: 808  12:55:19  -7.32           -6.139937    31              +0.0000
iter: 809  12:55:19  -7.30           -6.139937    31              +0.0000
iter: 810  12:55:20  -7.32           -6.139937    31              +0.0000
iter: 811  12:55:20  -7.30           -6.139937    31              +0.0000
iter: 812  12:55:21  -7.32           -6.139937    31              +0.0000
iter: 813  12:55:21  -7.30           -6.139937    31              +0.0000
iter: 814  12:55:22  -7.32           -6.139937    31              +0.0000
iter: 815  12:55:22  -7.30           -6.139937    31              +0.0000
iter: 816  12:55:23  -7.32           -6.139937    31              +0.0000
iter: 817  12:55:24  -7.30           -6.139937    31              +0.0000
iter: 818  12:55:24  -7.32           -6.139937    31              +0.0000
iter: 819  12:55:25  -7.30           -6.139937    31              +0.0000
iter: 820  12:55:25  -7.32           -6.139937    31              +0.0000
iter: 821  12:55:26  -7.30           -6.139937    31              +0.0000
iter: 822  12:55:26  -7.32           -6.139937    31              +0.0000
iter: 823  12:55:27  -7.31           -6.139937    31              +0.0000
iter: 824  12:55:27  -7.32           -6.139937    31              +0.0000
iter: 825  12:55:28  -7.31           -6.139937    31              +0.0000
iter: 826  12:55:29  -7.32           -6.139937    31              +0.0000
iter: 827  12:55:29  -7.31           -6.139937    31              +0.0000
iter: 828  12:55:30  -7.32           -6.139937    31              +0.0000
iter: 829  12:55:30  -7.31           -6.139937    31              +0.0000
iter: 830  12:55:31  -7.32           -6.139937    31              +0.0000
iter: 831  12:55:31  -7.31           -6.139937    31              +0.0000
iter: 832  12:55:32  -7.32           -6.139937    31              +0.0000
iter: 833  12:55:33  -7.31           -6.139937    31              +0.0000
iter: 834  12:55:33  -7.32           -6.139937    31              +0.0000
iter: 835  12:55:34  -7.31           -6.139937    31              +0.0000
iter: 836  12:55:34  -7.32           -6.139937    31              +0.0000
iter: 837  12:55:35  -7.31           -6.139937    31              +0.0000
iter: 838  12:55:35  -7.32           -6.139937    31              +0.0000
iter: 839  12:55:36  -7.31           -6.139937    31              +0.0000
iter: 840  12:55:36  -7.32           -6.139937    31              +0.0000
iter: 841  12:55:37  -7.31           -6.139937    31              +0.0000
iter: 842  12:55:38  -7.32           -6.139937    31              +0.0000
iter: 843  12:55:38  -7.31           -6.139937    31              +0.0000
iter: 844  12:55:39  -7.32           -6.139937    31              +0.0000
iter: 845  12:55:39  -7.31           -6.139937    31              +0.0000
iter: 846  12:55:40  -7.32           -6.139937    31              +0.0000
iter: 847  12:55:40  -7.31           -6.139937    31              +0.0000
iter: 848  12:55:41  -7.33           -6.139937    31              +0.0000
iter: 849  12:55:42  -7.31           -6.139937    31              +0.0000
iter: 850  12:55:42  -7.33           -6.139937    31              +0.0000
iter: 851  12:55:43  -7.31           -6.139937    31              +0.0000
iter: 852  12:55:43  -7.33           -6.139937    31              +0.0000
iter: 853  12:55:44  -7.31           -6.139937    31              +0.0000
iter: 854  12:55:44  -7.33           -6.139937    31              +0.0000
iter: 855  12:55:45  -7.31           -6.139937    31              +0.0000
iter: 856  12:55:45  -7.33           -6.139937    31              +0.0000
iter: 857  12:55:46  -7.31           -6.139937    31              +0.0000
iter: 858  12:55:47  -7.33           -6.139937    31              +0.0000
iter: 859  12:55:47  -7.31           -6.139937    31              +0.0000
iter: 860  12:55:48  -7.33           -6.139937    31              +0.0000
iter: 861  12:55:48  -7.31           -6.139937    31              +0.0000
iter: 862  12:55:49  -7.33           -6.139937    31              +0.0000
iter: 863  12:55:49  -7.31           -6.139937    31              +0.0000
iter: 864  12:55:50  -7.33           -6.139937    31              +0.0000
iter: 865  12:55:50  -7.31           -6.139937    31              +0.0000
iter: 866  12:55:51  -7.33           -6.139937    31              +0.0000
iter: 867  12:55:52  -7.31           -6.139937    31              +0.0000
iter: 868  12:55:52  -7.33           -6.139937    31              +0.0000
iter: 869  12:55:53  -7.31           -6.139937    31              +0.0000
iter: 870  12:55:53  -7.33           -6.139937    31              +0.0000
iter: 871  12:55:54  -7.31           -6.139937    31              +0.0000
iter: 872  12:55:54  -7.33           -6.139937    31              +0.0000
iter: 873  12:55:55  -7.31           -6.139937    31              +0.0000
iter: 874  12:55:56  -7.33           -6.139937    31              +0.0000
iter: 875  12:55:56  -7.32           -6.139937    31              +0.0000
iter: 876  12:55:57  -7.33           -6.139937    31              +0.0000
iter: 877  12:55:57  -7.32           -6.139937    31              +0.0000
iter: 878  12:55:58  -7.33           -6.139937    31              +0.0000
iter: 879  12:55:58  -7.32           -6.139937    31              +0.0000
iter: 880  12:55:59  -7.33           -6.139937    31              +0.0000
iter: 881  12:55:59  -7.32           -6.139937    31              +0.0000
iter: 882  12:56:00  -7.33           -6.139937    31              +0.0000
iter: 883  12:56:01  -7.32           -6.139937    31              +0.0000
iter: 884  12:56:01  -7.33           -6.139937    31              +0.0000
iter: 885  12:56:02  -7.32           -6.139937    31              +0.0000
iter: 886  12:56:02  -7.33           -6.139937    31              +0.0000
iter: 887  12:56:03  -7.32           -6.139937    31              +0.0000
iter: 888  12:56:03  -7.33           -6.139937    31              +0.0000
iter: 889  12:56:04  -7.32           -6.139937    31              +0.0000
iter: 890  12:56:04  -7.33           -6.139937    31              +0.0000
iter: 891  12:56:05  -7.32           -6.139937    31              +0.0000
iter: 892  12:56:06  -7.33           -6.139937    31              +0.0000
iter: 893  12:56:06  -7.32           -6.139937    31              +0.0000
iter: 894  12:56:07  -7.34           -6.139937    31              +0.0000
iter: 895  12:56:07  -7.32           -6.139937    31              +0.0000
iter: 896  12:56:08  -7.34           -6.139937    31              +0.0000
iter: 897  12:56:08  -7.32           -6.139937    31              +0.0000
iter: 898  12:56:09  -7.34           -6.139937    31              +0.0000
iter: 899  12:56:09  -7.32           -6.139937    31              +0.0000
iter: 900  12:56:10  -7.34           -6.139937    31              +0.0000
iter: 901  12:56:11  -7.32           -6.139937    31              +0.0000
iter: 902  12:56:11  -7.34           -6.139937    31              +0.0000
iter: 903  12:56:12  -7.32           -6.139937    31              +0.0000
iter: 904  12:56:12  -7.34           -6.139937    31              +0.0000
iter: 905  12:56:13  -7.32           -6.139937    31              +0.0000
iter: 906  12:56:13  -7.34           -6.139937    31              +0.0000
iter: 907  12:56:14  -7.32           -6.139937    31              +0.0000
iter: 908  12:56:14  -7.34           -6.139937    31              +0.0000
[...]
iter: 1018  12:57:16  -7.36           -6.139937    31              +0.0000
iter: 1019  12:57:17  -7.34           -6.139937    31              +0.0000
iter: 1020  12:57:17  -7.36           -6.139937    31              +0.0000
iter: 1021  12:57:18  -7.34           -6.139937    31              +0.0000
iter: 1022  12:57:18  -7.36           -6.139937    31              +0.0000
iter: 1023  12:57:19  -7.34           -6.139937    31              +0.0000
iter: 1024  12:57:19  -7.36           -6.139937    31              +0.0000
iter: 1025  12:57:20  -7.34           -6.139937    31              +0.0000
iter: 1026  12:57:20  -7.36           -6.139937    31              +0.0000
iter: 1027  12:57:21  -7.35           -6.139937    31              +0.0000
iter: 1028  12:57:22  -7.36           -6.139937    31              +0.0000
iter: 1029  12:57:22  -7.35           -6.139937    31              +0.0000
iter: 1030  12:57:23  -7.37           -6.139937    31              +0.0000
iter: 1031  12:57:23  -7.35           -6.139937    31              +0.0000
iter: 1032  12:57:24  -7.37           -6.139937    31              +0.0000
iter: 1033  12:57:24  -7.35           -6.139937    31              +0.0000
iter: 1034  12:57:25  -7.37           -6.139937    31              +0.0000
iter: 1035  12:57:25  -7.35           -6.139937    31              +0.0000
iter: 1036  12:57:26  -7.37           -6.139937    31              +0.0000
iter: 1037  12:57:27  -7.35           -6.139937    31              +0.0000
iter: 1038  12:57:27  -7.37           -6.139937    31              +0.0000
iter: 1039  12:57:28  -7.35           -6.139937    31              +0.0000
iter: 1040  12:57:28  -7.37           -6.139937    31              +0.0000
iter: 1041  12:57:29  -7.35           -6.139937    31              +0.0000
iter: 1042  12:57:29  -7.37           -6.139937    31              +0.0000
iter: 1043  12:57:30  -7.35           -6.139937    31              +0.0000
iter: 1044  12:57:30  -7.37           -6.139937    31              +0.0000
iter: 1045  12:57:31  -7.35           -6.139937    31              +0.0000
iter: 1046  12:57:32  -7.37           -6.139937    31              +0.0000
iter: 1047  12:57:32  -7.35           -6.139937    31              +0.0000
iter: 1048  12:57:33  -7.37           -6.139937    31              +0.0000
iter: 1049  12:57:33  -7.35           -6.139937    31              +0.0000
iter: 1050  12:57:34  -7.37           -6.139937    31              +0.0000
iter: 1051  12:57:34  -7.35           -6.139937    31              +0.0000
iter: 1052  12:57:35  -7.37           -6.139937    31              +0.0000
iter: 1053  12:57:35  -7.35           -6.139937    31              +0.0000
iter: 1054  12:57:36  -7.37           -6.139937    31              +0.0000
iter: 1055  12:57:37  -7.35           -6.139937    31              +0.0000
iter: 1056  12:57:37  -7.37           -6.139937    31              +0.0000
iter: 1057  12:57:38  -7.35           -6.139937    31              +0.0000
iter: 1058  12:57:38  -7.37           -6.139937    31              +0.0000
iter: 1059  12:57:39  -7.35           -6.139937    31              +0.0000
iter: 1060  12:57:39  -7.37           -6.139937    31              +0.0000
iter: 1061  12:57:40  -7.35           -6.139937    31              +0.0000
iter: 1062  12:57:40  -7.37           -6.139937    31              +0.0000
iter: 1063  12:57:41  -7.35           -6.139937    31              +0.0000
iter: 1064  12:57:42  -7.37           -6.139937    31              +0.0000
iter: 1065  12:57:42  -7.35           -6.139937    31              +0.0000
iter: 1066  12:57:43  -7.37           -6.139937    31              +0.0000
iter: 1067  12:57:43  -7.35           -6.139937    31              +0.0000
iter: 1068  12:57:44  -7.37           -6.139937    31              +0.0000
iter: 1069  12:57:44  -7.35           -6.139937    31              +0.0000
iter: 1070  12:57:45  -7.37           -6.139937    31              +0.0000
iter: 1071  12:57:45  -7.35           -6.139937    31              +0.0000
iter: 1072  12:57:46  -7.37           -6.139937    31              +0.0000
iter: 1073  12:57:46  -7.35           -6.139937    31              +0.0000
iter: 1074  12:57:47  -7.38           -6.139937    31              +0.0000
iter: 1075  12:57:48  -7.36           -6.139937    31              +0.0000
iter: 1076  12:57:48  -7.38           -6.139937    31              +0.0000
iter: 1077  12:57:49  -7.36           -6.139937    31              +0.0000
iter: 1078  12:57:49  -7.38           -6.139937    31              +0.0000
iter: 1079  12:57:50  -7.36           -6.139937    31              +0.0000
iter: 1080  12:57:50  -7.38           -6.139937    31              +0.0000
iter: 1081  12:57:51  -7.36           -6.139937    31              +0.0000
iter: 1082  12:57:51  -7.38           -6.139937    31              +0.0000
iter: 1083  12:57:52  -7.36           -6.139937    31              +0.0000
iter: 1084  12:57:53  -7.38           -6.139937    31              +0.0000
iter: 1085  12:57:53  -7.36           -6.139937    31              +0.0000
iter: 1086  12:57:54  -7.38           -6.139937    31              +0.0000
iter: 1087  12:57:54  -7.36           -6.139937    31              +0.0000
iter: 1088  12:57:55  -7.38           -6.139937    31              +0.0000
iter: 1089  12:57:55  -7.36           -6.139937    31              +0.0000
iter: 1090  12:57:56  -7.38           -6.139937    31              +0.0000
iter: 1091  12:57:56  -7.36           -6.139937    31              +0.0000
iter: 1092  12:57:57  -7.38           -6.139937    31              +0.0000
iter: 1093  12:57:58  -7.36           -6.139937    31              +0.0000
iter: 1094  12:57:58  -7.38           -6.139937    31              +0.0000
iter: 1095  12:57:59  -7.36           -6.139937    31              +0.0000
iter: 1096  12:57:59  -7.38           -6.139937    31              +0.0000
iter: 1097  12:58:00  -7.36           -6.139937    31              +0.0000
iter: 1098  12:58:00  -7.38           -6.139937    31              +0.0000
iter: 1099  12:58:01  -7.36           -6.139937    31              +0.0000
iter: 1100  12:58:01  -7.38           -6.139937    31              +0.0000
iter: 1101  12:58:02  -7.36           -6.139937    31              +0.0000
iter: 1102  12:58:03  -7.38           -6.139937    31              +0.0000
iter: 1103  12:58:03  -7.36           -6.139937    31              +0.0000
iter: 1104  12:58:04  -7.38           -6.139937    31              +0.0000
iter: 1105  12:58:04  -7.36           -6.139937    31              +0.0000
iter: 1106  12:58:05  -7.38           -6.139937    31              +0.0000
iter: 1107  12:58:05  -7.36           -6.139937    31              +0.0000
iter: 1108  12:58:06  -7.38           -6.139937    31              +0.0000
iter: 1109  12:58:07  -7.36           -6.139937    31              +0.0000
iter: 1110  12:58:07  -7.38           -6.139937    31              +0.0000
iter: 1111  12:58:08  -7.36           -6.139937    31              +0.0000
iter: 1112  12:58:08  -7.38           -6.139937    31              +0.0000
iter: 1113  12:58:09  -7.36           -6.139937    31              +0.0000
iter: 1114  12:58:09  -7.38           -6.139937    31              +0.0000
iter: 1115  12:58:10  -7.36           -6.139937    31              +0.0000
iter: 1116  12:58:10  -7.38           -6.139937    31              +0.0000
iter: 1117  12:58:11  -7.36           -6.139937    31              +0.0000
iter: 1118  12:58:11  -7.39           -6.139937    31              +0.0000
iter: 1119  12:58:12  -7.36           -6.139937    31              +0.0000
iter: 1120  12:58:13  -7.39           -6.139937    31              +0.0000
iter: 1121  12:58:13  -7.36           -6.139937    31              +0.0000
iter: 1122  12:58:14  -7.39           -6.139937    31              +0.0000
iter: 1123  12:58:14  -7.37           -6.139937    31              +0.0000
iter: 1124  12:58:15  -7.39           -6.139937    31              +0.0000
iter: 1125  12:58:15  -7.37           -6.139937    31              +0.0000
iter: 1126  12:58:16  -7.39           -6.139937    31              +0.0000
iter: 1127  12:58:16  -7.37           -6.139937    31              +0.0000
iter: 1128  12:58:17  -7.39           -6.139937    31              +0.0000
iter: 1129  12:58:18  -7.37           -6.139937    31              +0.0000
iter: 1130  12:58:18  -7.39           -6.139937    31              +0.0000
iter: 1131  12:58:19  -7.37           -6.139937    31              +0.0000
iter: 1132  12:58:19  -7.39           -6.139937    31              +0.0000
iter: 1133  12:58:20  -7.37           -6.139937    31              +0.0000
iter: 1134  12:58:20  -7.39           -6.139937    31              +0.0000
iter: 1135  12:58:21  -7.37           -6.139937    31              +0.0000
iter: 1136  12:58:21  -7.39           -6.139937    31              +0.0000
iter: 1137  12:58:22  -7.37           -6.139937    31              +0.0000
iter: 1138  12:58:23  -7.39           -6.139937    31              +0.0000
iter: 1139  12:58:23  -7.37           -6.139937    31              +0.0000
iter: 1140  12:58:24  -7.39           -6.139937    31              +0.0000
iter: 1141  12:58:24  -7.37           -6.139937    31              +0.0000
iter: 1142  12:58:25  -7.39           -6.139937    31              +0.0000
iter: 1143  12:58:25  -7.37           -6.139937    31              +0.0000
iter: 1144  12:58:26  -7.39           -6.139937    31              +0.0000
iter: 1145  12:58:26  -7.37           -6.139937    31              +0.0000
iter: 1146  12:58:27  -7.39           -6.139937    31              +0.0000
iter: 1147  12:58:28  -7.37           -6.139937    31              +0.0000
iter: 1148  12:58:28  -7.39           -6.139937    31              +0.0000
iter: 1149  12:58:29  -7.37           -6.139937    31              +0.0000
iter: 1150  12:58:29  -7.39           -6.139937    31              +0.0000
iter: 1151  12:58:30  -7.37           -6.139937    31              +0.0000
iter: 1152  12:58:30  -7.39           -6.139937    31              +0.0000
iter: 1153  12:58:31  -7.37           -6.139937    31              +0.0000
iter: 1154  12:58:31  -7.39           -6.139937    31              +0.0000
iter: 1155  12:58:32  -7.37           -6.139937    31              +0.0000
iter: 1156  12:58:33  -7.39           -6.139937    31              +0.0000
iter: 1157  12:58:33  -7.37           -6.139937    31              +0.0000
iter: 1158  12:58:34  -7.39           -6.139937    31              +0.0000
iter: 1159  12:58:34  -7.37           -6.139937    31              +0.0000
iter: 1160  12:58:35  -7.40           -6.139937    31              +0.0000
iter: 1161  12:58:35  -7.37           -6.139937    31              +0.0000
iter: 1162  12:58:36  -7.40           -6.139937    31              +0.0000
iter: 1163  12:58:36  -7.37           -6.139937    31              +0.0000
iter: 1164  12:58:37  -7.40           -6.139937    31              +0.0000
iter: 1165  12:58:38  -7.37           -6.139937    31              +0.0000
iter: 1166  12:58:38  -7.40           -6.139937    31              +0.0000
iter: 1167  12:58:39  -7.37           -6.139937    31              +0.0000
iter: 1168  12:58:39  -7.40           -6.139937    31              +0.0000
iter: 1169  12:58:40  -7.38           -6.139937    31              +0.0000
iter: 1170  12:58:40  -7.40           -6.139937    31              +0.0000
iter: 1171  12:58:41  -7.38           -6.139937    31              +0.0000
iter: 1172  12:58:41  -7.40           -6.139937    31              +0.0000

Converged after 1172 iterations.

Dipole moment: (0.000000, -0.000000, 0.000000) |e|*Ang

Total magnetic moment: 0.000000
Local magnetic moments:
   0 B  0.000000

Energy contributions relative to reference atoms: (reference = -669.489567)

Kinetic:         +2.946626
Potential:       -1.803382
External:        +0.000000
XC:              -7.300325
Entropy (-ST):   -0.001510
Local:           +0.017899
--------------------------
Free energy:     -6.140692
Extrapolated:    -6.139937

Spin contamination: 0.000000 electrons
Fixed Fermi level: 13.17430

Warning: Showing only first 2 kpts
                      Up                     Down
 Kpt  Band  Eigenvalues  Occupancy  Eigenvalues  Occupancy
  0     0     -5.75504    0.02000     -5.75504    0.02000
  0     1     28.52162    0.00000     28.52162    0.00000
  0     2     28.52240    0.00000     28.52240    0.00000

  1     0     -5.63870    0.02000     -5.63870    0.02000
  1     1     28.26393    0.00000     28.26393    0.00000
  1     2     28.26443    0.00000     28.26443    0.00000


Timing:                              incl.     excl.
-----------------------------------------------------------
Hamiltonian:                         0.208     0.001   0.0% |
 Atomic:                             0.171     0.002   0.0% |
  XC Correction:                     0.169     0.169   0.0% |
 Calculate atomic Hamiltonians:      0.002     0.002   0.0% |
 Communicate:                        0.000     0.000   0.0% |
 Initialize Hamiltonian:             0.000     0.000   0.0% |
 Poisson:                            0.000     0.000   0.0% |
 XC 3D grid:                         0.034     0.034   0.0% |
LCAO initialization:                 4.679     0.047   0.0% |
 LCAO eigensolver:                   3.243     0.016   0.0% |
  Calculate projections:             0.004     0.004   0.0% |
  DenseAtomicCorrection:             0.031     0.031   0.0% |
  Distribute overlap matrix:         0.006     0.006   0.0% |
  Orbital Layouts:                   0.029     0.029   0.0% |
  Potential matrix:                  0.392     0.392   0.1% |
  Sum over cells:                    2.766     2.766   0.4% |
 LCAO to grid:                       0.338     0.338   0.0% |
 Set positions (LCAO WFS):           1.051     0.000   0.0% |
  Basic WFS set positions:           0.002     0.002   0.0% |
  Basis functions set positions:     0.000     0.000   0.0% |
  TCI: Calculate S, T, P:            1.048     1.048   0.2% |
PWDescriptor:                        0.012     0.012   0.0% |
Redistribute:                        0.000     0.000   0.0% |
SCF-cycle:                         681.787   389.865  56.6% |----------------------|
 CG:                               104.273    94.303  13.7% |----|
  CG: orthonormalize:                9.970     5.892   0.9% |
   CG: overlap:                      2.327     2.327   0.3% |
   CG: overlap2:                     1.751     1.751   0.3% |
 Davidson:                           2.061     1.283   0.2% |
  calc. matrices:                    0.480     0.480   0.1% |
  diagonalize:                       0.185     0.185   0.0% |
  rotate_psi:                        0.113     0.113   0.0% |
 Density:                            0.294     0.000   0.0% |
  Atomic density matrices:           0.045     0.045   0.0% |
  Mix:                               0.026     0.026   0.0% |
  Multipole moments:                 0.002     0.002   0.0% |
  Pseudo density:                    0.221     0.159   0.0% |
   Symmetrize density:               0.063     0.063   0.0% |
 Hamiltonian:                        1.380     0.004   0.0% |
  Atomic:                            1.241     0.008   0.0% |
   XC Correction:                    1.233     1.233   0.2% |
  Calculate atomic Hamiltonians:     0.009     0.009   0.0% |
  Communicate:                       0.000     0.000   0.0% |
  Poisson:                           0.001     0.001   0.0% |
  XC 3D grid:                        0.124     0.124   0.0% |
 Orthonormalize:                     0.109     0.010   0.0% |
  Band Layouts:                      0.007     0.003   0.0% |
   Inverse Cholesky:                 0.005     0.005   0.0% |
  calc_s_matrix:                     0.017     0.017   0.0% |
  projections:                       0.060     0.060   0.0% |
  rotate_psi:                        0.014     0.014   0.0% |
 Residuals:                         63.677    63.677   9.2% |---|
 Subspace diag:                    120.128    12.427   1.8% ||
  Band Layouts:                     17.304     3.615   0.5% |
   Diagonalize:                     11.143    11.143   1.6% ||
   Distribute results:               2.546     2.546   0.4% |
  calc_h_matrix:                    71.347    71.347  10.4% |---|
  rotate_psi:                       19.050    19.050   2.8% ||
Set symmetry:                        0.108     0.108   0.0% |
Other:                               2.109     2.109   0.3% |
-----------------------------------------------------------
Total:                                       688.904 100.0%

Date: Thu Feb 11 12:58:42 2021
element =  B
struct =  bcc
kpts =  (8,8,8)
element =  B
configuration =  [He] 2s2 2p1
valence =  ['2s', '2p']
occupations =  {'2s': 2, '2p': 1}
nls =  2p
rNum =  600
lmax =  p
*******************************************
Starting confinement parameter optimization
Adjustable parameters and initial values:
  B_2p.r0 : 3.174740
  B_2s.r0 : 3.174740
  B_n.r0 : 4.762110
*******************************************

OPT_VAL: 3.1747398914060394   3.1747398914060394   4.762109837109059
VCONF:
  B_2p : PowerConfinement(r0=3.174740, s=2.000000)
  B_2s : PowerConfinement(r0=3.174740, s=2.000000)
  B_n : PowerConfinement(r0=4.762110, s=2.000000)
RESIDUAL: 0.0

OPT_VAL: 3.3747398914060396   3.1747398914060394   4.762109837109059
VCONF:
  B_2p : PowerConfinement(r0=3.374740, s=2.000000)
  B_2s : PowerConfinement(r0=3.174740, s=2.000000)
  B_n : PowerConfinement(r0=4.762110, s=2.000000)
RESIDUAL: 0.0

OPT_VAL: 3.1747398914060394   3.3747398914060396   4.762109837109059
VCONF:
  B_2p : PowerConfinement(r0=3.174740, s=2.000000)
  B_2s : PowerConfinement(r0=3.374740, s=2.000000)
  B_n : PowerConfinement(r0=4.762110, s=2.000000)
RESIDUAL: 0.0

OPT_VAL: 3.1747398914060394   3.1747398914060394   4.962109837109059
VCONF:
  B_2p : PowerConfinement(r0=3.174740, s=2.000000)
  B_2s : PowerConfinement(r0=3.174740, s=2.000000)
  B_n : PowerConfinement(r0=4.962110, s=2.000000)
RESIDUAL: 0.0

OPT_VAL: 3.1997398914060393   3.1747398914060394   4.762109837109059
VCONF:
  B_2p : PowerConfinement(r0=3.199740, s=2.000000)
  B_2s : PowerConfinement(r0=3.174740, s=2.000000)
  B_n : PowerConfinement(r0=4.762110, s=2.000000)
RESIDUAL: 0.0

OPT_VAL: 3.1747398914060394   3.1997398914060393   4.762109837109059
VCONF:
  B_2p : PowerConfinement(r0=3.174740, s=2.000000)
  B_2s : PowerConfinement(r0=3.199740, s=2.000000)
  B_n : PowerConfinement(r0=4.762110, s=2.000000)
RESIDUAL: 0.0

OPT_VAL: 3.1747398914060394   3.1747398914060394   4.7871098371090595
VCONF:
  B_2p : PowerConfinement(r0=3.174740, s=2.000000)
  B_2s : PowerConfinement(r0=3.174740, s=2.000000)
  B_n : PowerConfinement(r0=4.787110, s=2.000000)
RESIDUAL: 0.0

OPT_VAL: 3.1797398914060393   3.1747398914060394   4.762109837109059
VCONF:
  B_2p : PowerConfinement(r0=3.179740, s=2.000000)
  B_2s : PowerConfinement(r0=3.174740, s=2.000000)
  B_n : PowerConfinement(r0=4.762110, s=2.000000)
RESIDUAL: 0.0

OPT_VAL: 3.1747398914060394   3.1797398914060393   4.762109837109059
VCONF:
  B_2p : PowerConfinement(r0=3.174740, s=2.000000)
  B_2s : PowerConfinement(r0=3.179740, s=2.000000)
  B_n : PowerConfinement(r0=4.762110, s=2.000000)
RESIDUAL: 0.0

OPT_VAL: 3.1747398914060394   3.1747398914060394   4.767109837109059
VCONF:
  B_2p : PowerConfinement(r0=3.174740, s=2.000000)
  B_2s : PowerConfinement(r0=3.174740, s=2.000000)
  B_n : PowerConfinement(r0=4.767110, s=2.000000)
RESIDUAL: 0.0

*******************************************
Optimization finished after 10 iterations
Adjustable parameters and final values:
  B_2p.r0 : 3.174740
  B_2s.r0 : 3.174740
  B_n.r0 : 4.762110
*******************************************

VCONF:
  B_2p : PowerConfinement(r0=3.174740, s=2.000000)
  B_2s : PowerConfinement(r0=3.174740, s=2.000000)
  B_n : PowerConfinement(r0=4.762110, s=2.000000)
