element =  Pd
struct =  fcc
nbands =  -4
path =  WLGXWK
kpts =  (8,8,8)

  ___ ___ ___ _ _ _  
 |   |   |_  | | | | 
 | | | | | . | | | | 
 |__ |  _|___|_____|  1.3.1b1
 |___|_|             

User:   inukai@DESKTOP-12SE80T
Date:   Wed Feb  3 01:37:49 2021
Arch:   x86_64
Pid:    5110
Python: 3.6.9
gpaw:   /usr/lib/python3/dist-packages/gpaw
_gpaw:  /usr/lib/python3/dist-packages/_gpaw.cpython-36m-x86_64-linux-gnu.so
ase:    /home/inukai/hotcent/ase-3.19.3/ase (version 3.19.3)
numpy:  /home/inukai/.local/lib/python3.6/site-packages/numpy (version 1.19.5)
scipy:  /home/inukai/.local/lib/python3.6/site-packages/scipy (version 1.5.4)
units:  Angstrom and eV
cores:  1

Input parameters:
  kpts: [8 8 8]
  maxiter: 200
  mixer: {backend: pulay,
          beta: 0.05,
          method: separate,
          nmaxold: 8,
          weight: 100}
  mode: {ecut: 400.0,
         name: pw}
  occupations: {name: fermi-dirac,
                width: 0.02}
  spinpol: False
  xc: PBE

System changes: positions, numbers, cell, pbc, initial_charges, initial_magmoms 

Initialize ...

Pd-setup:
  name: Palladium
  id: c3f348c122b85aed3f99c4295cac773c
  Z: 46
  valence: 16
  core: 30
  charge: 0.0
  file: /usr/share/gpaw-setups/Pd.PBE.gz
  cutoffs: 1.19(comp), 2.38(filt), 2.28(core), lmax=2
  valence states:
                energy  radius
    5s(0.00)    -3.315   1.228
    4p(6.00)   -51.209   1.360
    5p(0.00)    -0.314   1.360
    4d(10.00)    -4.047   1.228
    *s          23.896   1.228
    *d          23.165   1.228

  Using partial waves for Pd as LCAO basis

Reference energy: -137227.490718

Spin-paired calculation

Occupation numbers:
  Fermi-Dirac: width=0.0200 eV

Convergence criteria:
  Maximum total energy change: 0.0005 eV / electron
  Maximum integral of absolute density change: 0.0001 electrons
  Maximum integral of absolute eigenstate change: 4e-08 eV^2
  Maximum number of iterations: 200

Symmetries present (total): 48

  ( 1  0  0)  ( 1  0  0)  ( 1  0  0)  ( 1  0  0)  ( 1  0 -1)  ( 1  0 -1)
  ( 1  0 -1)  ( 1 -1  0)  ( 0  1  0)  ( 0  0  1)  ( 1  0  0)  ( 1 -1  0)
  ( 1 -1  0)  ( 1  0 -1)  ( 0  0  1)  ( 0  1  0)  ( 1 -1  0)  ( 1  0  0)

  ( 1  0 -1)  ( 1  0 -1)  ( 1 -1  0)  ( 1 -1  0)  ( 1 -1  0)  ( 1 -1  0)
  ( 0  1 -1)  ( 0  0 -1)  ( 1  0  0)  ( 1  0 -1)  ( 0 -1  1)  ( 0 -1  0)
  ( 0  0 -1)  ( 0  1 -1)  ( 1  0 -1)  ( 1  0  0)  ( 0 -1  0)  ( 0 -1  1)

  ( 0  1  0)  ( 0  1  0)  ( 0  1  0)  ( 0  1  0)  ( 0  1 -1)  ( 0  1 -1)
  ( 1  0  0)  ( 0  1 -1)  ( 0  0  1)  (-1  1  0)  ( 1  0 -1)  ( 0  1  0)
  ( 0  0  1)  (-1  1  0)  ( 1  0  0)  ( 0  1 -1)  ( 0  0 -1)  (-1  1  0)

  ( 0  1 -1)  ( 0  1 -1)  ( 0  0  1)  ( 0  0  1)  ( 0  0  1)  ( 0  0  1)
  ( 0  0 -1)  (-1  1  0)  ( 1  0  0)  ( 0  1  0)  ( 0 -1  1)  (-1  0  1)
  ( 1  0 -1)  ( 0  1  0)  ( 0  1  0)  ( 1  0  0)  (-1  0  1)  ( 0 -1  1)

  ( 0  0 -1)  ( 0  0 -1)  ( 0  0 -1)  ( 0  0 -1)  ( 0 -1  1)  ( 0 -1  1)
  ( 1  0 -1)  ( 0  1 -1)  ( 0 -1  0)  (-1  0  0)  ( 1 -1  0)  ( 0  0  1)
  ( 0  1 -1)  ( 1  0 -1)  (-1  0  0)  ( 0 -1  0)  ( 0 -1  0)  (-1  0  1)

  ( 0 -1  1)  ( 0 -1  1)  ( 0 -1  0)  ( 0 -1  0)  ( 0 -1  0)  ( 0 -1  0)
  ( 0 -1  0)  (-1  0  1)  ( 1 -1  0)  ( 0  0 -1)  ( 0 -1  1)  (-1  0  0)
  ( 1 -1  0)  ( 0  0  1)  ( 0 -1  1)  (-1  0  0)  ( 1 -1  0)  ( 0  0 -1)

  (-1  1  0)  (-1  1  0)  (-1  1  0)  (-1  1  0)  (-1  0  1)  (-1  0  1)
  ( 0  1  0)  ( 0  1 -1)  (-1  0  1)  (-1  0  0)  ( 0  0  1)  ( 0 -1  1)
  ( 0  1 -1)  ( 0  1  0)  (-1  0  0)  (-1  0  1)  ( 0 -1  1)  ( 0  0  1)

  (-1  0  1)  (-1  0  1)  (-1  0  0)  (-1  0  0)  (-1  0  0)  (-1  0  0)
  (-1  1  0)  (-1  0  0)  ( 0  0 -1)  ( 0 -1  0)  (-1  1  0)  (-1  0  1)
  (-1  0  0)  (-1  1  0)  ( 0 -1  0)  ( 0  0 -1)  (-1  0  1)  (-1  1  0)
Note: your k-points are not as symmetric as your crystal!

512 k-points: 8 x 8 x 8 Monkhorst-Pack grid
60 k-points in the irreducible part of the Brillouin zone
       k-points in crystal coordinates                weights
   0:     0.06250000    0.06250000   -0.06250000          6/512
   1:     0.06250000    0.06250000    0.06250000          2/512
   2:     0.18750000   -0.06250000   -0.06250000          6/512
   3:     0.18750000    0.06250000   -0.18750000         12/512
   4:     0.18750000    0.06250000   -0.06250000         12/512
   5:     0.18750000    0.06250000    0.06250000          6/512
   6:     0.18750000    0.18750000   -0.18750000          6/512
   7:     0.18750000    0.18750000   -0.06250000          6/512
   8:     0.18750000    0.18750000    0.06250000          6/512
   9:     0.18750000    0.18750000    0.18750000          2/512
          ...
  59:     0.43750000    0.43750000    0.43750000          2/512

Wave functions: Plane wave expansion
  Cutoff energy: 400.000 eV
  Number of coefficients (min, max): 261, 278
  Using FFTW library
  Eigensolver: None  MatrixOperator buffer_size: default value or 
                              see value of nblock in input file
Diagonalizer layout: Serial LAPACKOrthonormalizer layout: Serial LAPACK 

Davidson(niter=1, smin=None, normalize=True) 

Densities:
  Coarse grid: 10*10*10 grid
  Fine grid: 20*20*20 grid
  Total Charge: 0.000000 

Density mixing:
  Method: separate
  Backend: pulay
  Linear mixing parameter: 0.05
  Mixing with 8 old densities
  Damping of long wave oscillations: 100 

Hamiltonian:
  XC and Coulomb potentials evaluated on a 20*20*20 grid
  Using the PBE Exchange-Correlation functional
 

Memory estimate:
  Process memory now: 922.99 MiB
  Calculator: 6.05 MiB
    Density: 0.46 MiB
      Arrays: 0.20 MiB
      Localized functions: 0.13 MiB
      Mixer: 0.12 MiB
    Hamiltonian: 0.13 MiB
      Arrays: 0.13 MiB
      XC: 0.00 MiB
      Poisson: 0.00 MiB
      vbar: 0.00 MiB
    Wavefunctions: 5.46 MiB
      Arrays psit_nG: 3.05 MiB
      Eigensolver: 0.09 MiB
      Projections: 0.20 MiB
      Projectors: 1.84 MiB
      Overlap op: 0.05 MiB
      PW-descriptor: 0.22 MiB

Total number of cores used: 1

Number of atoms: 1
Number of atomic orbitals: 12
Number of bands in calculation: 12
Bands to converge: occupied states only
Number of valence electrons: 16

... initialized

Initializing position-dependent things.

Density initialized from atomic densities
Creating initial wave functions:
  12 bands from LCAO basis set

                
                
                
       Pd       
                
                
                
                

Positions:
   0 Pd     0.000000    0.000000    0.000000

Unit cell:
           periodic     x           y           z      points  spacing
  1. axis:    yes    0.000000    1.945000    1.945000    10     0.2246
  2. axis:    yes    1.945000    0.000000    1.945000    10     0.2246
  3. axis:    yes    1.945000    1.945000    0.000000    10     0.2246

  Lengths:   2.750645   2.750645   2.750645
  Angles:   60.000000  60.000000  60.000000

Effective grid spacing dv^(1/3) = 0.2451

                     log10-error:    total        iterations:
           time      wfs    density  energy       fermi  poisson
iter:   1  01:37:53  +2.51   +inf    -4.683760    3             
iter:   2  01:37:54  +0.12   +inf    -4.747449    3             
iter:   3  01:37:54  -0.77   +inf    -4.760643    2             
iter:   4  01:37:56  -0.55  -1.22    -4.518515    27            
iter:   5  01:37:57  +0.66  -1.27    -3.799441    34            
iter:   6  01:37:58  -0.95  -1.90    -3.808952    5             
iter:   7  01:37:59  -1.89  -2.09    -3.795542    4             
iter:   8  01:38:00  -1.34  -2.18    -3.781780    4             
iter:   9  01:38:01  -2.98  -3.10    -3.781965    3             
iter:  10  01:38:02  -2.72  -3.12    -3.782689    3             
iter:  11  01:38:03  -2.60  -2.85    -3.781967    3             
iter:  12  01:38:04  -4.39  -4.09    -3.781968    2             
iter:  13  01:38:05  -4.73  -3.79    -3.781971    2             
iter:  14  01:38:06  -5.02  -4.47    -3.781972    2             
iter:  15  01:38:07  -5.36  -4.39    -3.781973    2             
iter:  16  01:38:08  -5.56  -4.40    -3.781973    2             
iter:  17  01:38:09  -5.77  -4.15    -3.781973    2             
iter:  18  01:38:10  -5.72  -4.44    -3.781974    2             
iter:  19  01:38:12  -6.14  -4.71    -3.781974    2             
iter:  20  01:38:13  -6.53  -5.16    -3.781974    2             
iter:  21  01:38:14  -6.79  -5.67    -3.781974    1             
iter:  22  01:38:15  -7.02  -5.77    -3.781974    1             
iter:  23  01:38:16  -7.09  -5.72    -3.781974    1             
iter:  24  01:38:17  -7.17  -5.80    -3.781974    2             
iter:  25  01:38:18  -7.51  -5.82    -3.781974    2             

Converged after 25 iterations.

Dipole moment: (-0.000000, 0.000000, -0.000000) |e|*Ang

Energy contributions relative to reference atoms: (reference = -137227.490718)

Kinetic:         -1.103369
Potential:       -3.284892
External:        +0.000000
XC:              +0.704296
Entropy (-ST):   -0.003315
Local:           -0.096350
--------------------------
Free energy:     -3.783631
Extrapolated:    -3.781974

Fermi level: 9.54870

Warning: Showing only first 2 kpts
 Kpt  Band  Eigenvalues  Occupancy
  0     6      6.90359    0.02344
  0     7      8.09506    0.02344
  0     8      8.38424    0.02344
  0     9     27.47158    0.00000

  1     6      6.74670    0.00781
  1     7      8.29051    0.00781
  1     8      8.29051    0.00781
  1     9     27.14079    0.00000


Input parameters:
  convergence: {bands: all}
  eigensolver: {name: cg,
                niter: 5}
  fixdensity: True
  kpts: {npoints: 50,
         path: WLGXWK}
  nbands: -4
  symmetry: off

Initialize ...

Pd-setup:
  name: Palladium
  id: c3f348c122b85aed3f99c4295cac773c
  Z: 46
  valence: 16
  core: 30
  charge: 0.0
  file: /usr/share/gpaw-setups/Pd.PBE.gz
  cutoffs: 1.19(comp), 2.38(filt), 2.28(core), lmax=2
  valence states:
                energy  radius
    5s(0.00)    -3.315   1.228
    4p(6.00)   -51.209   1.360
    5p(0.00)    -0.314   1.360
    4d(10.00)    -4.047   1.228
    *s          23.896   1.228
    *d          23.165   1.228

  Using partial waves for Pd as LCAO basis

Reference energy: -137227.490718

Spin-paired calculation

Occupation numbers:
  Fixed Fermi level
  Fermi-Dirac: width=0.0200 eV

Convergence criteria:
  Maximum total energy change: 0.0005 eV / electron
  Maximum integral of absolute density change: 0.0001 electrons
  Maximum integral of absolute eigenstate change: 4e-08 eV^2
  Maximum number of iterations: 200

Symmetries present (total): 1

  ( 1  0  0)
  ( 0  1  0)
  ( 0  0  1)

50 k-points
50 k-points in the irreducible part of the Brillouin zone
       k-points in crystal coordinates                weights
   0:     0.50000000    0.25000000    0.75000000          1/50
   1:     0.50000000    0.27777778    0.72222222          1/50
   2:     0.50000000    0.30555556    0.69444444          1/50
   3:     0.50000000    0.33333333    0.66666667          1/50
   4:     0.50000000    0.36111111    0.63888889          1/50
   5:     0.50000000    0.38888889    0.61111111          1/50
   6:     0.50000000    0.41666667    0.58333333          1/50
   7:     0.50000000    0.44444444    0.55555556          1/50
   8:     0.50000000    0.47222222    0.52777778          1/50
   9:     0.50000000    0.50000000    0.50000000          1/50
          ...
  49:     0.37500000    0.37500000    0.75000000          1/50

Wave functions: Plane wave expansion
  Cutoff energy: 400.000 eV
  Number of coefficients (min, max): 254, 283
  Using FFTW library
  Eigensolver: None  MatrixOperator buffer_size: default value or 
                              see value of nblock in input file
Diagonalizer layout: Serial LAPACKOrthonormalizer layout: Serial LAPACK 

CG(niter=5, rtol=3.0e-01) 

No density mixing

Memory estimate:
  Process memory now: 977.98 MiB
  Calculator: 5.20 MiB
    Density: 0.46 MiB
      Arrays: 0.20 MiB
      Localized functions: 0.13 MiB
      Mixer: 0.12 MiB
    Hamiltonian: 0.13 MiB
      Arrays: 0.13 MiB
      XC: 0.00 MiB
      Poisson: 0.00 MiB
      vbar: 0.00 MiB
    Wavefunctions: 4.61 MiB
      Arrays psit_nG: 2.59 MiB
      Eigensolver: 0.07 MiB
      Projections: 0.16 MiB
      Projectors: 1.53 MiB
      Overlap op: 0.05 MiB
      PW-descriptor: 0.19 MiB

Total number of cores used: 1

Number of atoms: 1
Number of atomic orbitals: 12
Number of bands in calculation: 12
Bands to converge: all
Number of valence electrons: 16

... initialized

Initializing position-dependent things.

Creating initial wave functions:
  12 bands from LCAO basis set

                
                
                
       Pd       
                
                
                
                

Positions:
   0 Pd     0.000000    0.000000    0.000000

Unit cell:
           periodic     x           y           z      points  spacing
  1. axis:    yes    0.000000    1.945000    1.945000    10     0.2246
  2. axis:    yes    1.945000    0.000000    1.945000    10     0.2246
  3. axis:    yes    1.945000    1.945000    0.000000    10     0.2246

  Lengths:   2.750645   2.750645   2.750645
  Angles:   60.000000  60.000000  60.000000

Effective grid spacing dv^(1/3) = 0.2451

                     log10-error:    total        iterations:
           time      wfs    density  energy       fermi  poisson
iter:   1  01:38:22  +2.38           -4.283907    4             
iter:   2  01:38:24  +1.62           -4.351630    4             
iter:   3  01:38:27  +0.91           -4.357269    4             
iter:   4  01:38:30  -0.04           -4.358319    4             
iter:   5  01:38:32  -1.14           -4.358486    4             
iter:   6  01:38:35  -0.59           -4.358531    4             
iter:   7  01:38:38  +0.16           -4.358539    4             
iter:   8  01:38:40  -0.12           -4.358542    4             
iter:   9  01:38:42  -0.42           -4.358542    4             
iter:  10  01:38:43  -1.71           -4.358542    4             
iter:  11  01:38:43  -2.76           -4.358542    4             
iter:  12  01:38:44  -3.89           -4.358542    4             
iter:  13  01:38:44  -4.64           -4.358542    4             
iter:  14  01:38:45  -5.76           -4.358542    4             
iter:  15  01:38:45  -6.55           -4.358542    4             
iter:  16  01:38:45  -7.26           -4.358542    4             
iter:  17  01:38:46  -7.57           -4.358542    4             

Converged after 17 iterations.

Dipole moment: (0.000000, 0.000000, -0.000000) |e|*Ang

Energy contributions relative to reference atoms: (reference = -137227.490718)

Kinetic:         -1.680074
Potential:       -3.284891
External:        +0.000000
XC:              +0.704299
Entropy (-ST):   -0.003052
Local:           -0.096351
--------------------------
Free energy:     -4.360068
Extrapolated:    -4.358542

Fixed Fermi level: 9.54870

Warning: Showing only first 2 kpts
 Kpt  Band  Eigenvalues  Occupancy
  0     6      8.21565    0.04000
  0     7      9.85571    0.00000
  0     8     18.52066    0.00000
  0     9     18.52116    0.00000

  1     6      8.21658    0.04000
  1     7      9.78001    0.00000
  1     8     18.04121    0.00000
  1     9     18.12341    0.00000


Timing:                              incl.     excl.
-----------------------------------------------------------
Hamiltonian:                         0.371     0.001   0.0% |
 Atomic:                             0.356     0.003   0.0% |
  XC Correction:                     0.353     0.353   0.6% |
 Calculate atomic Hamiltonians:      0.001     0.001   0.0% |
 Communicate:                        0.000     0.000   0.0% |
 Initialize Hamiltonian:             0.000     0.000   0.0% |
 Poisson:                            0.000     0.000   0.0% |
 XC 3D grid:                         0.013     0.013   0.0% |
LCAO initialization:                 2.810     0.371   0.6% |
 LCAO eigensolver:                   0.886     0.010   0.0% |
  Calculate projections:             0.003     0.003   0.0% |
  DenseAtomicCorrection:             0.018     0.018   0.0% |
  Distribute overlap matrix:         0.004     0.004   0.0% |
  Orbital Layouts:                   0.060     0.060   0.1% |
  Potential matrix:                  0.223     0.223   0.4% |
  Sum over cells:                    0.568     0.568   1.0% |
 LCAO to grid:                       0.515     0.515   0.9% |
 Set positions (LCAO WFS):           1.038     0.001   0.0% |
  Basic WFS set positions:           0.002     0.002   0.0% |
  Basis functions set positions:     0.000     0.000   0.0% |
  TCI: Calculate S, T, P:            1.035     1.035   1.8% ||
PWDescriptor:                        0.018     0.018   0.0% |
Redistribute:                        0.000     0.000   0.0% |
SCF-cycle:                          51.594     2.327   4.1% |-|
 CG:                                22.331    19.549  34.2% |-------------|
  CG: orthonormalize:                2.781     1.592   2.8% ||
   CG: overlap:                      0.732     0.732   1.3% ||
   CG: overlap2:                     0.457     0.457   0.8% |
 Davidson:                          13.776     7.766  13.6% |----|
  calc. matrices:                    3.125     3.125   5.5% |-|
  diagonalize:                       2.384     2.384   4.2% |-|
  rotate_psi:                        0.501     0.501   0.9% |
 Density:                            2.301     0.001   0.0% |
  Atomic density matrices:           0.105     0.105   0.2% |
  Mix:                               0.064     0.064   0.1% |
  Multipole moments:                 0.005     0.005   0.0% |
  Pseudo density:                    2.125     1.965   3.4% ||
   Symmetrize density:               0.160     0.160   0.3% |
 Hamiltonian:                        4.345     0.012   0.0% |
  Atomic:                            3.995     0.031   0.1% |
   XC Correction:                    3.964     3.964   6.9% |--|
  Calculate atomic Hamiltonians:     0.034     0.034   0.1% |
  Communicate:                       0.000     0.000   0.0% |
  Poisson:                           0.004     0.004   0.0% |
  XC 3D grid:                        0.300     0.300   0.5% |
 Orthonormalize:                     0.113     0.008   0.0% |
  Band Layouts:                      0.008     0.002   0.0% |
   Inverse Cholesky:                 0.006     0.006   0.0% |
  calc_s_matrix:                     0.018     0.018   0.0% |
  projections:                       0.063     0.063   0.1% |
  rotate_psi:                        0.017     0.017   0.0% |
 Residuals:                          0.703     0.703   1.2% |
 Subspace diag:                      5.699     0.280   0.5% |
  Band Layouts:                      0.963     0.082   0.1% |
   Diagonalize:                      0.821     0.821   1.4% ||
   Distribute results:               0.060     0.060   0.1% |
  calc_h_matrix:                     3.810     3.810   6.7% |--|
  rotate_psi:                        0.646     0.646   1.1% |
Set symmetry:                        0.152     0.152   0.3% |
Other:                               2.221     2.221   3.9% |-|
-----------------------------------------------------------
Total:                                        57.167 100.0%

Date: Wed Feb  3 01:38:47 2021
element =  Pd
struct =  fcc
kpts =  (8,8,8)
element =  Pd
configuration =  [Kr] 4d9 5s1 5p0
valence =  ['4d', '5s', '5p']
occupations =  {'4d': 9, '5s': 1}
nls =  4d
rNum =  600
lmax =  d
*******************************************
Starting confinement parameter optimization
Adjustable parameters and initial values:
  Pd_4d.r0 : 5.253439
  Pd_5p.r0 : 5.253439
  Pd_5s.r0 : 5.253439
  Pd_n.r0 : 7.880158
*******************************************

OPT_VAL: 5.25343862982666   5.25343862982666   5.25343862982666   7.88015794473999
VCONF:
  Pd_4d : PowerConfinement(r0=5.253439, s=2.000000)
  Pd_5p : PowerConfinement(r0=5.253439, s=2.000000)
  Pd_5s : PowerConfinement(r0=5.253439, s=2.000000)
  Pd_n : PowerConfinement(r0=7.880158, s=2.000000)
RESIDUAL: 0.0

OPT_VAL: 5.45343862982666   5.25343862982666   5.25343862982666   7.88015794473999
VCONF:
  Pd_4d : PowerConfinement(r0=5.453439, s=2.000000)
  Pd_5p : PowerConfinement(r0=5.253439, s=2.000000)
  Pd_5s : PowerConfinement(r0=5.253439, s=2.000000)
  Pd_n : PowerConfinement(r0=7.880158, s=2.000000)
RESIDUAL: 0.0

OPT_VAL: 5.25343862982666   5.45343862982666   5.25343862982666   7.88015794473999
VCONF:
  Pd_4d : PowerConfinement(r0=5.253439, s=2.000000)
  Pd_5p : PowerConfinement(r0=5.453439, s=2.000000)
  Pd_5s : PowerConfinement(r0=5.253439, s=2.000000)
  Pd_n : PowerConfinement(r0=7.880158, s=2.000000)
RESIDUAL: 0.0

OPT_VAL: 5.25343862982666   5.25343862982666   5.45343862982666   7.88015794473999
VCONF:
  Pd_4d : PowerConfinement(r0=5.253439, s=2.000000)
  Pd_5p : PowerConfinement(r0=5.253439, s=2.000000)
  Pd_5s : PowerConfinement(r0=5.453439, s=2.000000)
  Pd_n : PowerConfinement(r0=7.880158, s=2.000000)
RESIDUAL: 0.0

OPT_VAL: 5.25343862982666   5.25343862982666   5.25343862982666   8.08015794473999
VCONF:
  Pd_4d : PowerConfinement(r0=5.253439, s=2.000000)
  Pd_5p : PowerConfinement(r0=5.253439, s=2.000000)
  Pd_5s : PowerConfinement(r0=5.253439, s=2.000000)
  Pd_n : PowerConfinement(r0=8.080158, s=2.000000)
RESIDUAL: 0.0

OPT_VAL: 5.278438629826661   5.25343862982666   5.25343862982666   7.88015794473999
VCONF:
  Pd_4d : PowerConfinement(r0=5.278439, s=2.000000)
  Pd_5p : PowerConfinement(r0=5.253439, s=2.000000)
  Pd_5s : PowerConfinement(r0=5.253439, s=2.000000)
  Pd_n : PowerConfinement(r0=7.880158, s=2.000000)
RESIDUAL: 0.0

OPT_VAL: 5.25343862982666   5.278438629826661   5.25343862982666   7.88015794473999
VCONF:
  Pd_4d : PowerConfinement(r0=5.253439, s=2.000000)
  Pd_5p : PowerConfinement(r0=5.278439, s=2.000000)
  Pd_5s : PowerConfinement(r0=5.253439, s=2.000000)
  Pd_n : PowerConfinement(r0=7.880158, s=2.000000)
RESIDUAL: 0.0

OPT_VAL: 5.25343862982666   5.25343862982666   5.278438629826661   7.88015794473999
VCONF:
  Pd_4d : PowerConfinement(r0=5.253439, s=2.000000)
  Pd_5p : PowerConfinement(r0=5.253439, s=2.000000)
  Pd_5s : PowerConfinement(r0=5.278439, s=2.000000)
  Pd_n : PowerConfinement(r0=7.880158, s=2.000000)
RESIDUAL: 0.0

OPT_VAL: 5.25343862982666   5.25343862982666   5.25343862982666   7.90515794473999
VCONF:
  Pd_4d : PowerConfinement(r0=5.253439, s=2.000000)
  Pd_5p : PowerConfinement(r0=5.253439, s=2.000000)
  Pd_5s : PowerConfinement(r0=5.253439, s=2.000000)
  Pd_n : PowerConfinement(r0=7.905158, s=2.000000)
RESIDUAL: 0.0

OPT_VAL: 5.25843862982666   5.25343862982666   5.25343862982666   7.88015794473999
VCONF:
  Pd_4d : PowerConfinement(r0=5.258439, s=2.000000)
  Pd_5p : PowerConfinement(r0=5.253439, s=2.000000)
  Pd_5s : PowerConfinement(r0=5.253439, s=2.000000)
  Pd_n : PowerConfinement(r0=7.880158, s=2.000000)
RESIDUAL: 0.0

OPT_VAL: 5.25343862982666   5.25843862982666   5.25343862982666   7.88015794473999
VCONF:
  Pd_4d : PowerConfinement(r0=5.253439, s=2.000000)
  Pd_5p : PowerConfinement(r0=5.258439, s=2.000000)
  Pd_5s : PowerConfinement(r0=5.253439, s=2.000000)
  Pd_n : PowerConfinement(r0=7.880158, s=2.000000)
RESIDUAL: 0.0

OPT_VAL: 5.25343862982666   5.25343862982666   5.25843862982666   7.88015794473999
VCONF:
  Pd_4d : PowerConfinement(r0=5.253439, s=2.000000)
  Pd_5p : PowerConfinement(r0=5.253439, s=2.000000)
  Pd_5s : PowerConfinement(r0=5.258439, s=2.000000)
  Pd_n : PowerConfinement(r0=7.880158, s=2.000000)
RESIDUAL: 0.0

OPT_VAL: 5.25343862982666   5.25343862982666   5.25343862982666   7.88515794473999
VCONF:
  Pd_4d : PowerConfinement(r0=5.253439, s=2.000000)
  Pd_5p : PowerConfinement(r0=5.253439, s=2.000000)
  Pd_5s : PowerConfinement(r0=5.253439, s=2.000000)
  Pd_n : PowerConfinement(r0=7.885158, s=2.000000)
RESIDUAL: 0.0

*******************************************
Optimization finished after 13 iterations
Adjustable parameters and final values:
  Pd_4d.r0 : 5.253439
  Pd_5p.r0 : 5.253439
  Pd_5s.r0 : 5.253439
  Pd_n.r0 : 7.880158
*******************************************

VCONF:
  Pd_4d : PowerConfinement(r0=5.253439, s=2.000000)
  Pd_5p : PowerConfinement(r0=5.253439, s=2.000000)
  Pd_5s : PowerConfinement(r0=5.253439, s=2.000000)
  Pd_n : PowerConfinement(r0=7.880158, s=2.000000)
