
     Program PWSCF v.6.0 (svn rev. 13079) starts on 25Feb2021 at 13:12:32 

     This program is part of the open-source Quantum ESPRESSO suite
     for quantum simulation of materials; please cite
         "P. Giannozzi et al., J. Phys.:Condens. Matter 21 395502 (2009);
          URL http://www.quantum-espresso.org", 
     in publications or presentations arising from this work. More details at
     http://www.quantum-espresso.org/quote

     Parallel version (MPI), running on     1 processors
     Reading input from espresso.pwi
Warning: card &IONS ignored
Warning: card / ignored
Warning: card &CELL ignored
Warning: card / ignored

     Current dimensions of program PWSCF are:
     Max number of different atomic species (ntypx) = 10
     Max number of k-points (npk) =  40000
     Max angular momentum in pseudopotentials (lmaxx) =  3
     Message from routine input:
     WARNING: "startingwfc" set to atomic+random may spoil restart

     Atomic positions and unit cell read from directory:
     ./pwscf.save/


     IMPORTANT: XC functional enforced from input :
     Exchange-correlation      = PBE ( 1  4  3  4 0 0)
     Any further DFT definition will be discarded
     Please, verify this is what you really want


     Subspace diagonalization in iterative solution of the eigenvalue problem:
     a serial algorithm will be used


     G-vector sticks info
     --------------------
     sticks:   dense  smooth     PW     G-vecs:    dense   smooth      PW
     Sum         375     291     99                 4537     3151     627



     bravais-lattice index     =            0
     lattice parameter (alat)  =       4.9587  a.u.
     unit-cell volume          =      93.8630 (a.u.)^3
     number of atoms/cell      =            1
     number of atomic types    =            1
     number of electrons       =        13.00
     number of Kohn-Sham states=           11
     kinetic-energy cutoff     =      40.0000  Ry
     charge density cutoff     =     200.0000  Ry
     Exchange-correlation      = PBE ( 1  4  3  4 0 0)

     celldm(1)=   4.958749  celldm(2)=   0.000000  celldm(3)=   0.000000
     celldm(4)=   0.000000  celldm(5)=   0.000000  celldm(6)=   0.000000

     crystal axes: (cart. coord. in units of alat)
               a(1) = (  -0.577350   0.577350   0.577350 )  
               a(2) = (   0.577350  -0.577350   0.577350 )  
               a(3) = (   0.577350   0.577350  -0.577350 )  

     reciprocal axes: (cart. coord. in units 2 pi/alat)
               b(1) = (  0.000000  0.866025  0.866025 )  
               b(2) = (  0.866025  0.000000  0.866025 )  
               b(3) = (  0.866025  0.866025  0.000000 )  


     PseudoPot. # 1 for V  read from file:
     /home/inukai/tango/tests/1element/qe_fit_v2_V/../pseudo/v_pbe_v1.4.uspp.F.UPF
     MD5 check sum: 22b79981416ebb76fdaf5b1b8640f6fb
     Pseudo is Ultrasoft + core correction, Zval = 13.0
     Generated by new atomic code, or converted to UPF format
     Using radial grid of  853 points,  6 beta functions with: 
                l(1) =   0
                l(2) =   0
                l(3) =   1
                l(4) =   1
                l(5) =   2
                l(6) =   2
     Q(r) pseudized with  8 coefficients,  rinner =    1.100   1.100   1.100
                                                       1.100   1.100

     atomic species   valence    mass     pseudopotential
        V             13.00    50.94150     V ( 1.00)

     48 Sym. Ops., with inversion, found


                                    s                        frac. trans.

      isym =  1     identity                                     

 cryst.   s( 1) = (     1          0          0      )
                  (     0          1          0      )
                  (     0          0          1      )

 cart.    s( 1) = (  1.0000000  0.0000000  0.0000000 )
                  (  0.0000000  1.0000000  0.0000000 )
                  (  0.0000000  0.0000000  1.0000000 )


      isym =  2     180 deg rotation - cart. axis [0,0,1]        

 cryst.   s( 2) = (     0          1          0      )
                  (     1          0          0      )
                  (    -1         -1         -1      )

 cart.    s( 2) = ( -1.0000000  0.0000000  0.0000000 )
                  (  0.0000000 -1.0000000  0.0000000 )
                  (  0.0000000  0.0000000  1.0000000 )


      isym =  3     180 deg rotation - cart. axis [0,1,0]        

 cryst.   s( 3) = (     0          0          1      )
                  (    -1         -1         -1      )
                  (     1          0          0      )

 cart.    s( 3) = ( -1.0000000  0.0000000  0.0000000 )
                  (  0.0000000  1.0000000  0.0000000 )
                  (  0.0000000  0.0000000 -1.0000000 )


      isym =  4     180 deg rotation - cart. axis [1,0,0]        

 cryst.   s( 4) = (    -1         -1         -1      )
                  (     0          0          1      )
                  (     0          1          0      )

 cart.    s( 4) = (  1.0000000  0.0000000  0.0000000 )
                  (  0.0000000 -1.0000000  0.0000000 )
                  (  0.0000000  0.0000000 -1.0000000 )


      isym =  5     180 deg rotation - cart. axis [1,1,0]        

 cryst.   s( 5) = (    -1          0          0      )
                  (     0         -1          0      )
                  (     1          1          1      )

 cart.    s( 5) = (  0.0000000  1.0000000  0.0000000 )
                  (  1.0000000  0.0000000  0.0000000 )
                  (  0.0000000  0.0000000 -1.0000000 )


      isym =  6     180 deg rotation - cart. axis [1,-1,0]       

 cryst.   s( 6) = (     0         -1          0      )
                  (    -1          0          0      )
                  (     0          0         -1      )

 cart.    s( 6) = (  0.0000000 -1.0000000  0.0000000 )
                  ( -1.0000000  0.0000000  0.0000000 )
                  (  0.0000000  0.0000000 -1.0000000 )


      isym =  7      90 deg rotation - cart. axis [0,0,-1]       

 cryst.   s( 7) = (     1          1          1      )
                  (     0          0         -1      )
                  (    -1          0          0      )

 cart.    s( 7) = (  0.0000000  1.0000000  0.0000000 )
                  ( -1.0000000  0.0000000  0.0000000 )
                  (  0.0000000  0.0000000  1.0000000 )


      isym =  8      90 deg rotation - cart. axis [0,0,1]        

 cryst.   s( 8) = (     0          0         -1      )
                  (     1          1          1      )
                  (     0         -1          0      )

 cart.    s( 8) = (  0.0000000 -1.0000000  0.0000000 )
                  (  1.0000000  0.0000000  0.0000000 )
                  (  0.0000000  0.0000000  1.0000000 )


      isym =  9     180 deg rotation - cart. axis [1,0,1]        

 cryst.   s( 9) = (    -1          0          0      )
                  (     1          1          1      )
                  (     0          0         -1      )

 cart.    s( 9) = (  0.0000000  0.0000000  1.0000000 )
                  (  0.0000000 -1.0000000  0.0000000 )
                  (  1.0000000  0.0000000  0.0000000 )


      isym = 10     180 deg rotation - cart. axis [-1,0,1]       

 cryst.   s(10) = (     0          0         -1      )
                  (     0         -1          0      )
                  (    -1          0          0      )

 cart.    s(10) = (  0.0000000  0.0000000 -1.0000000 )
                  (  0.0000000 -1.0000000  0.0000000 )
                  ( -1.0000000  0.0000000  0.0000000 )


      isym = 11      90 deg rotation - cart. axis [0,1,0]        

 cryst.   s(11) = (     1          1          1      )
                  (    -1          0          0      )
                  (     0         -1          0      )

 cart.    s(11) = (  0.0000000  0.0000000  1.0000000 )
                  (  0.0000000  1.0000000  0.0000000 )
                  ( -1.0000000  0.0000000  0.0000000 )


      isym = 12      90 deg rotation - cart. axis [0,-1,0]       

 cryst.   s(12) = (     0         -1          0      )
                  (     0          0         -1      )
                  (     1          1          1      )

 cart.    s(12) = (  0.0000000  0.0000000 -1.0000000 )
                  (  0.0000000  1.0000000  0.0000000 )
                  (  1.0000000  0.0000000  0.0000000 )


      isym = 13     180 deg rotation - cart. axis [0,1,1]        

 cryst.   s(13) = (     1          1          1      )
                  (     0         -1          0      )
                  (     0          0         -1      )

 cart.    s(13) = ( -1.0000000  0.0000000  0.0000000 )
                  (  0.0000000  0.0000000  1.0000000 )
                  (  0.0000000  1.0000000  0.0000000 )


      isym = 14     180 deg rotation - cart. axis [0,1,-1]       

 cryst.   s(14) = (    -1          0          0      )
                  (     0          0         -1      )
                  (     0         -1          0      )

 cart.    s(14) = ( -1.0000000  0.0000000  0.0000000 )
                  (  0.0000000  0.0000000 -1.0000000 )
                  (  0.0000000 -1.0000000  0.0000000 )


      isym = 15      90 deg rotation - cart. axis [-1,0,0]       

 cryst.   s(15) = (     0         -1          0      )
                  (     1          1          1      )
                  (    -1          0          0      )

 cart.    s(15) = (  1.0000000  0.0000000  0.0000000 )
                  (  0.0000000  0.0000000  1.0000000 )
                  (  0.0000000 -1.0000000  0.0000000 )


      isym = 16      90 deg rotation - cart. axis [1,0,0]        

 cryst.   s(16) = (     0          0         -1      )
                  (    -1          0          0      )
                  (     1          1          1      )

 cart.    s(16) = (  1.0000000  0.0000000  0.0000000 )
                  (  0.0000000  0.0000000 -1.0000000 )
                  (  0.0000000  1.0000000  0.0000000 )


      isym = 17     120 deg rotation - cart. axis [-1,-1,-1]     

 cryst.   s(17) = (     0          0          1      )
                  (     1          0          0      )
                  (     0          1          0      )

 cart.    s(17) = (  0.0000000  1.0000000  0.0000000 )
                  (  0.0000000  0.0000000  1.0000000 )
                  (  1.0000000  0.0000000  0.0000000 )


      isym = 18     120 deg rotation - cart. axis [-1,1,1]       

 cryst.   s(18) = (     1          0          0      )
                  (     0          0          1      )
                  (    -1         -1         -1      )

 cart.    s(18) = (  0.0000000 -1.0000000  0.0000000 )
                  (  0.0000000  0.0000000  1.0000000 )
                  ( -1.0000000  0.0000000  0.0000000 )


      isym = 19     120 deg rotation - cart. axis [1,1,-1]       

 cryst.   s(19) = (     0          1          0      )
                  (    -1         -1         -1      )
                  (     0          0          1      )

 cart.    s(19) = (  0.0000000  1.0000000  0.0000000 )
                  (  0.0000000  0.0000000 -1.0000000 )
                  ( -1.0000000  0.0000000  0.0000000 )


      isym = 20     120 deg rotation - cart. axis [1,-1,1]       

 cryst.   s(20) = (    -1         -1         -1      )
                  (     0          1          0      )
                  (     1          0          0      )

 cart.    s(20) = (  0.0000000 -1.0000000  0.0000000 )
                  (  0.0000000  0.0000000 -1.0000000 )
                  (  1.0000000  0.0000000  0.0000000 )


      isym = 21     120 deg rotation - cart. axis [1,1,1]        

 cryst.   s(21) = (     0          1          0      )
                  (     0          0          1      )
                  (     1          0          0      )

 cart.    s(21) = (  0.0000000  0.0000000  1.0000000 )
                  (  1.0000000  0.0000000  0.0000000 )
                  (  0.0000000  1.0000000  0.0000000 )


      isym = 22     120 deg rotation - cart. axis [-1,1,-1]      

 cryst.   s(22) = (     0          0          1      )
                  (     0          1          0      )
                  (    -1         -1         -1      )

 cart.    s(22) = (  0.0000000  0.0000000  1.0000000 )
                  ( -1.0000000  0.0000000  0.0000000 )
                  (  0.0000000 -1.0000000  0.0000000 )


      isym = 23     120 deg rotation - cart. axis [1,-1,-1]      

 cryst.   s(23) = (     1          0          0      )
                  (    -1         -1         -1      )
                  (     0          1          0      )

 cart.    s(23) = (  0.0000000  0.0000000 -1.0000000 )
                  ( -1.0000000  0.0000000  0.0000000 )
                  (  0.0000000  1.0000000  0.0000000 )


      isym = 24     120 deg rotation - cart. axis [-1,-1,1]      

 cryst.   s(24) = (    -1         -1         -1      )
                  (     1          0          0      )
                  (     0          0          1      )

 cart.    s(24) = (  0.0000000  0.0000000 -1.0000000 )
                  (  1.0000000  0.0000000  0.0000000 )
                  (  0.0000000 -1.0000000  0.0000000 )


      isym = 25     inversion                                    

 cryst.   s(25) = (    -1          0          0      )
                  (     0         -1          0      )
                  (     0          0         -1      )

 cart.    s(25) = ( -1.0000000  0.0000000  0.0000000 )
                  (  0.0000000 -1.0000000  0.0000000 )
                  (  0.0000000  0.0000000 -1.0000000 )


      isym = 26     inv. 180 deg rotation - cart. axis [0,0,1]   

 cryst.   s(26) = (     0         -1          0      )
                  (    -1          0          0      )
                  (     1          1          1      )

 cart.    s(26) = (  1.0000000  0.0000000  0.0000000 )
                  (  0.0000000  1.0000000  0.0000000 )
                  (  0.0000000  0.0000000 -1.0000000 )


      isym = 27     inv. 180 deg rotation - cart. axis [0,1,0]   

 cryst.   s(27) = (     0          0         -1      )
                  (     1          1          1      )
                  (    -1          0          0      )

 cart.    s(27) = (  1.0000000  0.0000000  0.0000000 )
                  (  0.0000000 -1.0000000  0.0000000 )
                  (  0.0000000  0.0000000  1.0000000 )


      isym = 28     inv. 180 deg rotation - cart. axis [1,0,0]   

 cryst.   s(28) = (     1          1          1      )
                  (     0          0         -1      )
                  (     0         -1          0      )

 cart.    s(28) = ( -1.0000000  0.0000000  0.0000000 )
                  (  0.0000000  1.0000000  0.0000000 )
                  (  0.0000000  0.0000000  1.0000000 )


      isym = 29     inv. 180 deg rotation - cart. axis [1,1,0]   

 cryst.   s(29) = (     1          0          0      )
                  (     0          1          0      )
                  (    -1         -1         -1      )

 cart.    s(29) = (  0.0000000 -1.0000000  0.0000000 )
                  ( -1.0000000  0.0000000  0.0000000 )
                  (  0.0000000  0.0000000  1.0000000 )


      isym = 30     inv. 180 deg rotation - cart. axis [1,-1,0]  

 cryst.   s(30) = (     0          1          0      )
                  (     1          0          0      )
                  (     0          0          1      )

 cart.    s(30) = (  0.0000000  1.0000000  0.0000000 )
                  (  1.0000000  0.0000000  0.0000000 )
                  (  0.0000000  0.0000000  1.0000000 )


      isym = 31     inv.  90 deg rotation - cart. axis [0,0,-1]  

 cryst.   s(31) = (    -1         -1         -1      )
                  (     0          0          1      )
                  (     1          0          0      )

 cart.    s(31) = (  0.0000000 -1.0000000  0.0000000 )
                  (  1.0000000  0.0000000  0.0000000 )
                  (  0.0000000  0.0000000 -1.0000000 )


      isym = 32     inv.  90 deg rotation - cart. axis [0,0,1]   

 cryst.   s(32) = (     0          0          1      )
                  (    -1         -1         -1      )
                  (     0          1          0      )

 cart.    s(32) = (  0.0000000  1.0000000  0.0000000 )
                  ( -1.0000000  0.0000000  0.0000000 )
                  (  0.0000000  0.0000000 -1.0000000 )


      isym = 33     inv. 180 deg rotation - cart. axis [1,0,1]   

 cryst.   s(33) = (     1          0          0      )
                  (    -1         -1         -1      )
                  (     0          0          1      )

 cart.    s(33) = (  0.0000000  0.0000000 -1.0000000 )
                  (  0.0000000  1.0000000  0.0000000 )
                  ( -1.0000000  0.0000000  0.0000000 )


      isym = 34     inv. 180 deg rotation - cart. axis [-1,0,1]  

 cryst.   s(34) = (     0          0          1      )
                  (     0          1          0      )
                  (     1          0          0      )

 cart.    s(34) = (  0.0000000  0.0000000  1.0000000 )
                  (  0.0000000  1.0000000  0.0000000 )
                  (  1.0000000  0.0000000  0.0000000 )


      isym = 35     inv.  90 deg rotation - cart. axis [0,1,0]   

 cryst.   s(35) = (    -1         -1         -1      )
                  (     1          0          0      )
                  (     0          1          0      )

 cart.    s(35) = (  0.0000000  0.0000000 -1.0000000 )
                  (  0.0000000 -1.0000000  0.0000000 )
                  (  1.0000000  0.0000000  0.0000000 )


      isym = 36     inv.  90 deg rotation - cart. axis [0,-1,0]  

 cryst.   s(36) = (     0          1          0      )
                  (     0          0          1      )
                  (    -1         -1         -1      )

 cart.    s(36) = (  0.0000000  0.0000000  1.0000000 )
                  (  0.0000000 -1.0000000  0.0000000 )
                  ( -1.0000000  0.0000000  0.0000000 )


      isym = 37     inv. 180 deg rotation - cart. axis [0,1,1]   

 cryst.   s(37) = (    -1         -1         -1      )
                  (     0          1          0      )
                  (     0          0          1      )

 cart.    s(37) = (  1.0000000  0.0000000  0.0000000 )
                  (  0.0000000  0.0000000 -1.0000000 )
                  (  0.0000000 -1.0000000  0.0000000 )


      isym = 38     inv. 180 deg rotation - cart. axis [0,1,-1]  

 cryst.   s(38) = (     1          0          0      )
                  (     0          0          1      )
                  (     0          1          0      )

 cart.    s(38) = (  1.0000000  0.0000000  0.0000000 )
                  (  0.0000000  0.0000000  1.0000000 )
                  (  0.0000000  1.0000000  0.0000000 )


      isym = 39     inv.  90 deg rotation - cart. axis [-1,0,0]  

 cryst.   s(39) = (     0          1          0      )
                  (    -1         -1         -1      )
                  (     1          0          0      )

 cart.    s(39) = ( -1.0000000  0.0000000  0.0000000 )
                  (  0.0000000  0.0000000 -1.0000000 )
                  (  0.0000000  1.0000000  0.0000000 )


      isym = 40     inv.  90 deg rotation - cart. axis [1,0,0]   

 cryst.   s(40) = (     0          0          1      )
                  (     1          0          0      )
                  (    -1         -1         -1      )

 cart.    s(40) = ( -1.0000000  0.0000000  0.0000000 )
                  (  0.0000000  0.0000000  1.0000000 )
                  (  0.0000000 -1.0000000  0.0000000 )


      isym = 41     inv. 120 deg rotation - cart. axis [-1,-1,-1]

 cryst.   s(41) = (     0          0         -1      )
                  (    -1          0          0      )
                  (     0         -1          0      )

 cart.    s(41) = (  0.0000000 -1.0000000  0.0000000 )
                  (  0.0000000  0.0000000 -1.0000000 )
                  ( -1.0000000  0.0000000  0.0000000 )


      isym = 42     inv. 120 deg rotation - cart. axis [-1,1,1]  

 cryst.   s(42) = (    -1          0          0      )
                  (     0          0         -1      )
                  (     1          1          1      )

 cart.    s(42) = (  0.0000000  1.0000000  0.0000000 )
                  (  0.0000000  0.0000000 -1.0000000 )
                  (  1.0000000  0.0000000  0.0000000 )


      isym = 43     inv. 120 deg rotation - cart. axis [1,1,-1]  

 cryst.   s(43) = (     0         -1          0      )
                  (     1          1          1      )
                  (     0          0         -1      )

 cart.    s(43) = (  0.0000000 -1.0000000  0.0000000 )
                  (  0.0000000  0.0000000  1.0000000 )
                  (  1.0000000  0.0000000  0.0000000 )


      isym = 44     inv. 120 deg rotation - cart. axis [1,-1,1]  

 cryst.   s(44) = (     1          1          1      )
                  (     0         -1          0      )
                  (    -1          0          0      )

 cart.    s(44) = (  0.0000000  1.0000000  0.0000000 )
                  (  0.0000000  0.0000000  1.0000000 )
                  ( -1.0000000  0.0000000  0.0000000 )


      isym = 45     inv. 120 deg rotation - cart. axis [1,1,1]   

 cryst.   s(45) = (     0         -1          0      )
                  (     0          0         -1      )
                  (    -1          0          0      )

 cart.    s(45) = (  0.0000000  0.0000000 -1.0000000 )
                  ( -1.0000000  0.0000000  0.0000000 )
                  (  0.0000000 -1.0000000  0.0000000 )


      isym = 46     inv. 120 deg rotation - cart. axis [-1,1,-1] 

 cryst.   s(46) = (     0          0         -1      )
                  (     0         -1          0      )
                  (     1          1          1      )

 cart.    s(46) = (  0.0000000  0.0000000 -1.0000000 )
                  (  1.0000000  0.0000000  0.0000000 )
                  (  0.0000000  1.0000000  0.0000000 )


      isym = 47     inv. 120 deg rotation - cart. axis [1,-1,-1] 

 cryst.   s(47) = (    -1          0          0      )
                  (     1          1          1      )
                  (     0         -1          0      )

 cart.    s(47) = (  0.0000000  0.0000000  1.0000000 )
                  (  1.0000000  0.0000000  0.0000000 )
                  (  0.0000000 -1.0000000  0.0000000 )


      isym = 48     inv. 120 deg rotation - cart. axis [-1,-1,1] 

 cryst.   s(48) = (     1          1          1      )
                  (    -1          0          0      )
                  (     0          0         -1      )

 cart.    s(48) = (  0.0000000  0.0000000  1.0000000 )
                  ( -1.0000000  0.0000000  0.0000000 )
                  (  0.0000000  1.0000000  0.0000000 )


   Cartesian axes

     site n.     atom                  positions (alat units)
         1           V   tau(   1) = (   0.0000000   0.0000000   0.0000000  )

   Crystallographic axes

     site n.     atom                  positions (cryst. coord.)
         1           V   tau(   1) = (  0.0000000  0.0000000  0.0000000  )

     number of k points=    50  gaussian smearing, width (Ry)=  0.0010
                       cart. coord. in units 2pi/alat
        k(    1) = (   0.0000000   0.0000000   0.0000000), wk =   0.0400000
        k(    2) = (   0.0000000   0.0618590   0.0000000), wk =   0.0400000
        k(    3) = (   0.0000000   0.1237179   0.0000000), wk =   0.0400000
        k(    4) = (   0.0000000   0.1855769   0.0000000), wk =   0.0400000
        k(    5) = (   0.0000000   0.2474358   0.0000000), wk =   0.0400000
        k(    6) = (   0.0000000   0.3092948   0.0000000), wk =   0.0400000
        k(    7) = (   0.0000000   0.3711537   0.0000000), wk =   0.0400000
        k(    8) = (   0.0000000   0.4330127   0.0000000), wk =   0.0400000
        k(    9) = (   0.0000000   0.4948717   0.0000000), wk =   0.0400000
        k(   10) = (   0.0000000   0.5567306   0.0000000), wk =   0.0400000
        k(   11) = (   0.0000000   0.6185896   0.0000000), wk =   0.0400000
        k(   12) = (   0.0000000   0.6804485   0.0000000), wk =   0.0400000
        k(   13) = (   0.0000000   0.7423075   0.0000000), wk =   0.0400000
        k(   14) = (   0.0000000   0.8041664   0.0000000), wk =   0.0400000
        k(   15) = (   0.0000000   0.8660254   0.0000000), wk =   0.0400000
        k(   16) = (   0.0433013   0.8227241   0.0000000), wk =   0.0400000
        k(   17) = (   0.0866025   0.7794229   0.0000000), wk =   0.0400000
        k(   18) = (   0.1299038   0.7361216   0.0000000), wk =   0.0400000
        k(   19) = (   0.1732051   0.6928203   0.0000000), wk =   0.0400000
        k(   20) = (   0.2165064   0.6495191   0.0000000), wk =   0.0400000
        k(   21) = (   0.2598076   0.6062178   0.0000000), wk =   0.0400000
        k(   22) = (   0.3031089   0.5629165   0.0000000), wk =   0.0400000
        k(   23) = (   0.3464102   0.5196152   0.0000000), wk =   0.0400000
        k(   24) = (   0.3897114   0.4763140   0.0000000), wk =   0.0400000
        k(   25) = (   0.4330127   0.4330127   0.0000000), wk =   0.0400000
        k(   26) = (   0.3936479   0.3936479   0.0000000), wk =   0.0400000
        k(   27) = (   0.3542831   0.3542831   0.0000000), wk =   0.0400000
        k(   28) = (   0.3149183   0.3149183   0.0000000), wk =   0.0400000
        k(   29) = (   0.2755535   0.2755535   0.0000000), wk =   0.0400000
        k(   30) = (   0.2361887   0.2361887   0.0000000), wk =   0.0400000
        k(   31) = (   0.1968240   0.1968240   0.0000000), wk =   0.0400000
        k(   32) = (   0.1574592   0.1574592   0.0000000), wk =   0.0400000
        k(   33) = (   0.1180944   0.1180944   0.0000000), wk =   0.0400000
        k(   34) = (   0.0787296   0.0787296   0.0000000), wk =   0.0400000
        k(   35) = (   0.0393648   0.0393648   0.0000000), wk =   0.0400000
        k(   36) = (   0.0000000   0.0000000   0.0000000), wk =   0.0400000
        k(   37) = (   0.0309295   0.0309295   0.0309295), wk =   0.0400000
        k(   38) = (   0.0618590   0.0618590   0.0618590), wk =   0.0400000
        k(   39) = (   0.0927884   0.0927884   0.0927884), wk =   0.0400000
        k(   40) = (   0.1237179   0.1237179   0.1237179), wk =   0.0400000
        k(   41) = (   0.1546474   0.1546474   0.1546474), wk =   0.0400000
        k(   42) = (   0.1855769   0.1855769   0.1855769), wk =   0.0400000
        k(   43) = (   0.2165064   0.2165064   0.2165064), wk =   0.0400000
        k(   44) = (   0.2474358   0.2474358   0.2474358), wk =   0.0400000
        k(   45) = (   0.2783653   0.2783653   0.2783653), wk =   0.0400000
        k(   46) = (   0.3092948   0.3092948   0.3092948), wk =   0.0400000
        k(   47) = (   0.3402243   0.3402243   0.3402243), wk =   0.0400000
        k(   48) = (   0.3711537   0.3711537   0.3711537), wk =   0.0400000
        k(   49) = (   0.4020832   0.4020832   0.4020832), wk =   0.0400000
        k(   50) = (   0.4330127   0.4330127   0.4330127), wk =   0.0400000

                       cryst. coord.
        k(    1) = (   0.0000000   0.0000000   0.0000000), wk =   0.0400000
        k(    2) = (   0.0357143  -0.0357143   0.0357143), wk =   0.0400000
        k(    3) = (   0.0714286  -0.0714286   0.0714286), wk =   0.0400000
        k(    4) = (   0.1071429  -0.1071429   0.1071429), wk =   0.0400000
        k(    5) = (   0.1428571  -0.1428571   0.1428571), wk =   0.0400000
        k(    6) = (   0.1785714  -0.1785714   0.1785714), wk =   0.0400000
        k(    7) = (   0.2142857  -0.2142857   0.2142857), wk =   0.0400000
        k(    8) = (   0.2500000  -0.2500000   0.2500000), wk =   0.0400000
        k(    9) = (   0.2857143  -0.2857143   0.2857143), wk =   0.0400000
        k(   10) = (   0.3214286  -0.3214286   0.3214286), wk =   0.0400000
        k(   11) = (   0.3571429  -0.3571429   0.3571429), wk =   0.0400000
        k(   12) = (   0.3928571  -0.3928571   0.3928571), wk =   0.0400000
        k(   13) = (   0.4285714  -0.4285714   0.4285714), wk =   0.0400000
        k(   14) = (   0.4642857  -0.4642857   0.4642857), wk =   0.0400000
        k(   15) = (   0.5000000  -0.5000000   0.5000000), wk =   0.0400000
        k(   16) = (   0.4500000  -0.4500000   0.5000000), wk =   0.0400000
        k(   17) = (   0.4000000  -0.4000000   0.5000000), wk =   0.0400000
        k(   18) = (   0.3500000  -0.3500000   0.5000000), wk =   0.0400000
        k(   19) = (   0.3000000  -0.3000000   0.5000000), wk =   0.0400000
        k(   20) = (   0.2500000  -0.2500000   0.5000000), wk =   0.0400000
        k(   21) = (   0.2000000  -0.2000000   0.5000000), wk =   0.0400000
        k(   22) = (   0.1500000  -0.1500000   0.5000000), wk =   0.0400000
        k(   23) = (   0.1000000  -0.1000000   0.5000000), wk =   0.0400000
        k(   24) = (   0.0500000  -0.0500000   0.5000000), wk =   0.0400000
        k(   25) = (   0.0000000   0.0000000   0.5000000), wk =   0.0400000
        k(   26) = (   0.0000000   0.0000000   0.4545455), wk =   0.0400000
        k(   27) = (   0.0000000   0.0000000   0.4090909), wk =   0.0400000
        k(   28) = (   0.0000000   0.0000000   0.3636364), wk =   0.0400000
        k(   29) = (   0.0000000   0.0000000   0.3181818), wk =   0.0400000
        k(   30) = (   0.0000000   0.0000000   0.2727273), wk =   0.0400000
        k(   31) = (   0.0000000   0.0000000   0.2272727), wk =   0.0400000
        k(   32) = (   0.0000000   0.0000000   0.1818182), wk =   0.0400000
        k(   33) = (   0.0000000   0.0000000   0.1363636), wk =   0.0400000
        k(   34) = (   0.0000000   0.0000000   0.0909091), wk =   0.0400000
        k(   35) = (   0.0000000   0.0000000   0.0454545), wk =   0.0400000
        k(   36) = (   0.0000000   0.0000000   0.0000000), wk =   0.0400000
        k(   37) = (   0.0178571   0.0178571   0.0178571), wk =   0.0400000
        k(   38) = (   0.0357143   0.0357143   0.0357143), wk =   0.0400000
        k(   39) = (   0.0535714   0.0535714   0.0535714), wk =   0.0400000
        k(   40) = (   0.0714286   0.0714286   0.0714286), wk =   0.0400000
        k(   41) = (   0.0892857   0.0892857   0.0892857), wk =   0.0400000
        k(   42) = (   0.1071429   0.1071429   0.1071429), wk =   0.0400000
        k(   43) = (   0.1250000   0.1250000   0.1250000), wk =   0.0400000
        k(   44) = (   0.1428571   0.1428571   0.1428571), wk =   0.0400000
        k(   45) = (   0.1607143   0.1607143   0.1607143), wk =   0.0400000
        k(   46) = (   0.1785714   0.1785714   0.1785714), wk =   0.0400000
        k(   47) = (   0.1964286   0.1964286   0.1964286), wk =   0.0400000
        k(   48) = (   0.2142857   0.2142857   0.2142857), wk =   0.0400000
        k(   49) = (   0.2321429   0.2321429   0.2321429), wk =   0.0400000
        k(   50) = (   0.2500000   0.2500000   0.2500000), wk =   0.0400000

     Dense  grid:     4537 G-vectors     FFT dimensions: (  24,  24,  24)

     Smooth grid:     3151 G-vectors     FFT dimensions: (  20,  20,  20)

     Estimated max dynamical RAM per process >       5.62Mb

     Check: negative/imaginary core charge=   -0.000008    0.000000

     The potential is recalculated from file :
     ./pwscf.save/charge-density.dat


     negative rho (up, down):  1.818E-03 0.000E+00
     Starting wfc are   10 randomized atomic wfcs +    1 random wfc

     Band Structure Calculation
     Davidson diagonalization with overlap

     Computing kpt #:     1
     total cpu time spent up to now is        0.7 secs

     Computing kpt #:     2
     total cpu time spent up to now is        0.8 secs

     Computing kpt #:     3
     total cpu time spent up to now is        0.9 secs

     Computing kpt #:     4
     total cpu time spent up to now is        0.9 secs

     Computing kpt #:     5
     total cpu time spent up to now is        1.0 secs

     Computing kpt #:     6
     total cpu time spent up to now is        1.0 secs

     Computing kpt #:     7
     total cpu time spent up to now is        1.1 secs

     Computing kpt #:     8
     total cpu time spent up to now is        1.2 secs

     Computing kpt #:     9
     total cpu time spent up to now is        1.2 secs

     Computing kpt #:    10
     total cpu time spent up to now is        1.3 secs

     Computing kpt #:    11
     total cpu time spent up to now is        1.3 secs

     Computing kpt #:    12
     total cpu time spent up to now is        1.4 secs

     Computing kpt #:    13
     total cpu time spent up to now is        1.4 secs

     Computing kpt #:    14
     total cpu time spent up to now is        1.5 secs

     Computing kpt #:    15
     total cpu time spent up to now is        1.5 secs

     Computing kpt #:    16
     total cpu time spent up to now is        1.6 secs

     Computing kpt #:    17
     total cpu time spent up to now is        1.6 secs

     Computing kpt #:    18
     total cpu time spent up to now is        1.7 secs

     Computing kpt #:    19
     total cpu time spent up to now is        1.8 secs

     Computing kpt #:    20
     total cpu time spent up to now is        1.8 secs

     Computing kpt #:    21
     total cpu time spent up to now is        1.9 secs

     Computing kpt #:    22
     total cpu time spent up to now is        1.9 secs

     Computing kpt #:    23
     total cpu time spent up to now is        1.9 secs

     Computing kpt #:    24
     total cpu time spent up to now is        2.0 secs

     Computing kpt #:    25
     total cpu time spent up to now is        2.0 secs

     Computing kpt #:    26
     total cpu time spent up to now is        2.1 secs

     Computing kpt #:    27
     total cpu time spent up to now is        2.1 secs

     Computing kpt #:    28
     total cpu time spent up to now is        2.2 secs

     Computing kpt #:    29
     total cpu time spent up to now is        2.2 secs

     Computing kpt #:    30
     total cpu time spent up to now is        2.3 secs

     Computing kpt #:    31
     total cpu time spent up to now is        2.3 secs

     Computing kpt #:    32
     total cpu time spent up to now is        2.4 secs

     Computing kpt #:    33
     total cpu time spent up to now is        2.5 secs

     Computing kpt #:    34
     total cpu time spent up to now is        2.5 secs

     Computing kpt #:    35
     total cpu time spent up to now is        2.6 secs

     Computing kpt #:    36
     total cpu time spent up to now is        2.7 secs

     Computing kpt #:    37
     total cpu time spent up to now is        2.8 secs

     Computing kpt #:    38
     total cpu time spent up to now is        2.8 secs

     Computing kpt #:    39
     total cpu time spent up to now is        2.9 secs

     Computing kpt #:    40
     total cpu time spent up to now is        3.0 secs

     Computing kpt #:    41
     total cpu time spent up to now is        3.0 secs

     Computing kpt #:    42
     total cpu time spent up to now is        3.1 secs

     Computing kpt #:    43
     total cpu time spent up to now is        3.1 secs

     Computing kpt #:    44
     total cpu time spent up to now is        3.2 secs

     Computing kpt #:    45
     total cpu time spent up to now is        3.2 secs

     Computing kpt #:    46
     total cpu time spent up to now is        3.2 secs

     Computing kpt #:    47
     total cpu time spent up to now is        3.3 secs

     Computing kpt #:    48
     total cpu time spent up to now is        3.4 secs

     Computing kpt #:    49
     total cpu time spent up to now is        3.4 secs

     Computing kpt #:    50
     total cpu time spent up to now is        3.5 secs

     ethr =  7.69E-10,  avg # of iterations =  9.6

     total cpu time spent up to now is        3.5 secs

     End of band structure calculation

          k = 0.0000 0.0000 0.0000 (   381 PWs)   bands (ev):

   -47.7156 -21.0691 -21.0691 -21.0691   9.4617  16.4250  16.4250  16.4250
    18.3560  18.3560  36.2843

          k = 0.0000 0.0619 0.0000 (   381 PWs)   bands (ev):

   -47.7113 -21.0839 -21.0757 -21.0757   9.5622  16.4180  16.4180  16.4604
    18.2774  18.3855  36.0001

          k = 0.0000 0.1237 0.0000 (   401 PWs)   bands (ev):

   -47.6987 -21.1264 -21.0951 -21.0951   9.8580  16.4025  16.4025  16.5657
    18.0475  18.4702  35.3574

          k = 0.0000 0.1856 0.0000 (   397 PWs)   bands (ev):

   -47.6787 -21.1909 -21.1267 -21.1267  10.3316  16.3938  16.3938  16.7369
    17.6838  18.5993  34.6506

          k = 0.0000 0.2474 0.0000 (   398 PWs)   bands (ev):

   -47.6525 -21.2694 -21.1690 -21.1690  10.9525  16.4128  16.4128  16.9679
    17.2131  18.7590  34.0228

          k = 0.0000 0.3093 0.0000 (   390 PWs)   bands (ev):

   -47.6220 -21.3528 -21.2204 -21.2204  11.6728  16.4813  16.4813  16.6688
    17.2500  18.9405  33.5178

          k = 0.0000 0.3712 0.0000 (   402 PWs)   bands (ev):

   -47.5890 -21.4325 -21.2784 -21.2784  12.4206  16.0861  16.6185  16.6185
    17.5717  19.1579  33.1368

          k = 0.0000 0.4330 0.0000 (   402 PWs)   bands (ev):

   -47.5554 -21.5015 -21.3403 -21.3403  13.0924  15.4990  16.8385  16.8385
    17.9190  19.4697  32.8641

          k = 0.0000 0.4949 0.0000 (   410 PWs)   bands (ev):

   -47.5231 -21.5556 -21.4032 -21.4032  13.5670  14.9373  17.1484  17.1484
    18.2757  19.9783  31.7254

          k = 0.0000 0.5567 0.0000 (   414 PWs)   bands (ev):

   -47.4936 -21.5933 -21.4636 -21.4636  13.7696  14.4256  17.5468  17.5468
    18.6236  20.7692  30.3483

          k = 0.0000 0.6186 0.0000 (   402 PWs)   bands (ev):

   -47.4680 -21.6158 -21.5184 -21.5184  13.7313  13.9836  18.0211  18.0211
    18.9437  21.8362  29.0359

          k = 0.0000 0.6804 0.0000 (   402 PWs)   bands (ev):

   -47.4475 -21.6265 -21.5646 -21.5646  13.5572  13.6260  18.5414  18.5414
    19.2171  23.0868  27.8432

          k = 0.0000 0.7423 0.0000 (   394 PWs)   bands (ev):

   -47.4324 -21.6296 -21.5996 -21.5996  13.3555  13.3634  19.0503  19.0503
    19.4266  24.3713  26.8443

          k = 0.0000 0.8042 0.0000 (   398 PWs)   bands (ev):

   -47.4232 -21.6293 -21.6214 -21.6214  13.2032  13.2045  19.4476  19.4476
    19.5583  25.4433  26.1492

          k = 0.0000 0.8660 0.0000 (   418 PWs)   bands (ev):

   -47.4202 -21.6289 -21.6289 -21.6289  13.1493  13.1493  19.6032  19.6032
    19.6032  25.8938  25.8938

          k = 0.0433 0.8227 0.0000 (   398 PWs)   bands (ev):

   -47.4232 -21.6352 -21.6216 -21.6158  13.2020  13.2039  19.3994  19.4475
    19.6122  25.7194  25.8584

          k = 0.0866 0.7794 0.0000 (   398 PWs)   bands (ev):

   -47.4318 -21.6537 -21.6005 -21.5776  13.3500  13.3668  18.8741  19.0249
    19.6382  25.2429  25.7815

          k = 0.1299 0.7361 0.0000 (   402 PWs)   bands (ev):

   -47.4453 -21.6824 -21.5675 -21.5178  13.5592  13.6354  18.1857  18.4541
    19.6790  24.5568  25.7123

          k = 0.1732 0.6928 0.0000 (   406 PWs)   bands (ev):

   -47.4622 -21.7183 -21.5257 -21.4419  13.7608  14.0057  17.4554  17.8987
    19.7307  23.7399  25.6754

          k = 0.2165 0.6495 0.0000 (   414 PWs)   bands (ev):

   -47.4810 -21.7580 -21.4791 -21.3568  13.8477  14.4720  16.7579  17.5366
    19.7884  22.8459  25.6709

          k = 0.2598 0.6062 0.0000 (   410 PWs)   bands (ev):

   -47.4997 -21.7974 -21.4321 -21.2707  13.7385  15.0270  16.1397  17.4845
    19.8466  21.9118  25.6890

          k = 0.3031 0.5629 0.0000 (   402 PWs)   bands (ev):

   -47.5165 -21.8328 -21.3894 -21.1922  13.4811  15.6316  15.6607  17.6925
    19.8996  20.9668  25.7179

          k = 0.3464 0.5196 0.0000 (   394 PWs)   bands (ev):

   -47.5298 -21.8608 -21.3553 -21.1294  13.2026  15.2547  16.3563  18.0000
    19.9418  20.0405  25.7474

          k = 0.3897 0.4763 0.0000 (   396 PWs)   bands (ev):

   -47.5383 -21.8787 -21.3333 -21.0888  13.0019  15.0231  17.0678  18.2538
    19.1873  19.9691  25.7691

          k = 0.4330 0.4330 0.0000 (   392 PWs)   bands (ev):

   -47.5412 -21.8848 -21.3257 -21.0747  12.9300  14.9450  17.5099  18.3508
    18.6974  19.9785  25.7770

          k = 0.3936 0.3936 0.0000 (   404 PWs)   bands (ev):

   -47.5448 -21.8690 -21.3206 -21.0746  12.9216  14.9714  17.2987  18.3560
    18.6850  19.8832  26.0894

          k = 0.3543 0.3543 0.0000 (   402 PWs)   bands (ev):

   -47.5553 -21.8225 -21.3057 -21.0742  12.8729  15.0491  16.8200  18.3314
    18.6504  19.6138  26.9331

          k = 0.3149 0.3149 0.0000 (   406 PWs)   bands (ev):

   -47.5717 -21.7488 -21.2822 -21.0737  12.7166  15.1738  16.3315  18.2621
    18.6003  19.2130  28.1250

          k = 0.2756 0.2756 0.0000 (   398 PWs)   bands (ev):

   -47.5927 -21.6534 -21.2518 -21.0730  12.3784  15.3381  16.0277  18.1687
    18.5435  18.7337  29.5076

          k = 0.2362 0.2362 0.0000 (   394 PWs)   bands (ev):

   -47.6166 -21.5434 -21.2169 -21.0722  11.8630  15.5315  15.9615  18.0782
    18.2270  18.4883  30.9633

          k = 0.1968 0.1968 0.0000 (   392 PWs)   bands (ev):

   -47.6414 -21.4274 -21.1804 -21.0714  11.2627  15.7407  16.0556  17.7359
    18.0203  18.4410  32.3923

          k = 0.1575 0.1575 0.0000 (   394 PWs)   bands (ev):

   -47.6652 -21.3148 -21.1452 -21.0707  10.6757  15.9492  16.2018  17.2939
    18.0232  18.4049  33.6974

          k = 0.1181 0.1181 0.0000 (   392 PWs)   bands (ev):

   -47.6859 -21.2149 -21.1141 -21.0700  10.1689  16.1389  16.3221  16.9265
    18.0968  18.3802  34.7890

          k = 0.0787 0.0787 0.0000 (   392 PWs)   bands (ev):

   -47.7020 -21.1365 -21.0898 -21.0695   9.7832  16.2914  16.3903  16.6518
    18.2128  18.3655  35.6044

          k = 0.0394 0.0394 0.0000 (   381 PWs)   bands (ev):

   -47.7122 -21.0863 -21.0744 -21.0692   9.5431  16.3906  16.4182  16.4823
    18.3156  18.3582  36.1109

          k = 0.0000 0.0000 0.0000 (   381 PWs)   bands (ev):

   -47.7156 -21.0691 -21.0691 -21.0691   9.4617  16.4250  16.4250  16.4250
    18.3560  18.3560  36.2843

          k = 0.0309 0.0309 0.0309 (   381 PWs)   bands (ev):

   -47.7124 -21.0866 -21.0708 -21.0708   9.5371  16.4013  16.4013  16.4870
    18.3384  18.3384  36.1925

          k = 0.0619 0.0619 0.0619 (   390 PWs)   bands (ev):

   -47.7030 -21.1371 -21.0761 -21.0761   9.7598  16.3271  16.3271  16.6718
    18.2961  18.2961  35.8849

          k = 0.0928 0.0928 0.0928 (   393 PWs)   bands (ev):

   -47.6881 -21.2148 -21.0852 -21.0852  10.1194  16.1966  16.1966  16.9761
    18.2534  18.2534  35.3221

          k = 0.1237 0.1237 0.1237 (   396 PWs)   bands (ev):

   -47.6689 -21.3109 -21.0985 -21.0985  10.5993  16.0109  16.0109  17.3936
    18.2345  18.2345  34.5364

          k = 0.1546 0.1546 0.1546 (   396 PWs)   bands (ev):

   -47.6468 -21.4147 -21.1165 -21.1165  11.1777  15.7844  15.7844  17.9154
    18.2506  18.2506  33.6118

          k = 0.1856 0.1856 0.1856 (   390 PWs)   bands (ev):

   -47.6235 -21.5154 -21.1396 -21.1396  11.8279  15.5414  15.5414  18.2991
    18.2991  18.5297  32.6277

          k = 0.2165 0.2165 0.2165 (   411 PWs)   bands (ev):

   -47.6006 -21.6026 -21.1681 -21.1681  12.5182  15.3078  15.3078  18.3702
    18.3702  19.2233  31.6381

          k = 0.2474 0.2474 0.2474 (   405 PWs)   bands (ev):

   -47.5796 -21.6679 -21.2018 -21.2018  13.2101  15.1052  15.1052  18.4524
    18.4524  19.9839  30.6748

          k = 0.2784 0.2784 0.2784 (   408 PWs)   bands (ev):

   -47.5617 -21.7053 -21.2405 -21.2405  13.8572  14.9482  14.9482  18.5352
    18.5352  20.8046  29.7562

          k = 0.3093 0.3093 0.3093 (   402 PWs)   bands (ev):

   -47.5476 -21.7116 -21.2835 -21.2835  14.4057  14.8447  14.8447  18.6107
    18.6107  21.6884  28.8918

          k = 0.3402 0.3402 0.3402 (   402 PWs)   bands (ev):

   -47.5375 -21.6869 -21.3298 -21.3298  14.7964  14.7964  14.8025  18.6733
    18.6733  22.6499  28.0868

          k = 0.3712 0.3712 0.3712 (   396 PWs)   bands (ev):

   -47.5314 -21.6345 -21.3778 -21.3778  14.7993  14.7993  15.0123  18.7197
    18.7197  23.7087  27.3449

          k = 0.4021 0.4021 0.4021 (   414 PWs)   bands (ev):

   -47.5285 -21.5604 -21.4261 -21.4261  14.8446  14.8446  15.0369  18.7483
    18.7483  24.8727  26.6709

          k = 0.4330 0.4330 0.4330 (   420 PWs)   bands (ev):

   -47.5277 -21.4729 -21.4729 -21.4729  14.9190  14.9190  14.9190  18.7581
    18.7581  26.0731  26.0731

     Writing output data file pwscf.save

     init_run     :      0.69s CPU      0.47s WALL (       1 calls)
     electrons    :      4.14s CPU      2.80s WALL (       1 calls)

     Called by init_run:
     wfcinit      :      0.00s CPU      0.00s WALL (       1 calls)
     wfcinit:atom :      0.00s CPU      0.02s WALL (      50 calls)
     wfcinit:wfcr :      0.33s CPU      0.21s WALL (      50 calls)
     potinit      :      0.02s CPU      0.02s WALL (       1 calls)

     Called by electrons:
     c_bands      :      4.14s CPU      2.80s WALL (       1 calls)
     v_of_rho     :      0.02s CPU      0.02s WALL (       1 calls)
     v_h          :      0.00s CPU      0.00s WALL (       1 calls)
     v_xc         :      0.02s CPU      0.01s WALL (       1 calls)
     newd         :      0.02s CPU      0.03s WALL (       1 calls)

     Called by c_bands:
     init_us_2    :      0.05s CPU      0.02s WALL (      50 calls)
     cegterg      :      3.70s CPU      2.47s WALL (      50 calls)

     Called by sum_band:

     Called by *egterg:
     h_psi        :      1.36s CPU      1.17s WALL (     581 calls)
     s_psi        :      0.08s CPU      0.05s WALL (     581 calls)
     g_psi        :      0.02s CPU      0.02s WALL (     481 calls)
     cdiaghg      :      1.98s CPU      1.08s WALL (     531 calls)
     cegterg:over :      0.22s CPU      0.12s WALL (     481 calls)
     cegterg:upda :      0.08s CPU      0.10s WALL (     481 calls)
     cegterg:last :      0.20s CPU      0.05s WALL (     100 calls)

     Called by h_psi:
     h_psi:pot    :      1.34s CPU      1.15s WALL (     581 calls)
     h_psi:calbec :      0.11s CPU      0.07s WALL (     581 calls)
     vloc_psi     :      1.17s CPU      1.02s WALL (     581 calls)
     add_vuspsi   :      0.06s CPU      0.05s WALL (     581 calls)

     General routines
     calbec       :      0.11s CPU      0.06s WALL (     581 calls)
     fft          :      0.02s CPU      0.02s WALL (      13 calls)
     ffts         :      0.00s CPU      0.00s WALL (       1 calls)
     fftw         :      0.81s CPU      0.78s WALL (    8016 calls)
     interpolate  :      0.00s CPU      0.00s WALL (       1 calls)
     davcio       :      0.00s CPU      0.00s WALL (      50 calls)

     Parallel routines
     fft_scatter  :      0.17s CPU      0.13s WALL (    8030 calls)

     PWSCF        :     5.25s CPU         3.75s WALL


   This run was terminated on:  13:12:36  25Feb2021            

=------------------------------------------------------------------------------=
   JOB DONE.
=------------------------------------------------------------------------------=
