element =  Ge
struct =  diamond
nbands =  -4
path =  LGXUG
kpts =  (8,8,8)

  ___ ___ ___ _ _ _  
 |   |   |_  | | | | 
 | | | | | . | | | | 
 |__ |  _|___|_____|  1.3.1b1
 |___|_|             

User:   inukai@DESKTOP-12SE80T
Date:   Tue Feb  2 22:30:26 2021
Arch:   x86_64
Pid:    2925
Python: 3.6.9
gpaw:   /usr/lib/python3/dist-packages/gpaw
_gpaw:  /usr/lib/python3/dist-packages/_gpaw.cpython-36m-x86_64-linux-gnu.so
ase:    /home/inukai/hotcent/ase-3.19.3/ase (version 3.19.3)
numpy:  /home/inukai/.local/lib/python3.6/site-packages/numpy (version 1.19.5)
scipy:  /home/inukai/.local/lib/python3.6/site-packages/scipy (version 1.5.4)
units:  Angstrom and eV
cores:  1

Input parameters:
  kpts: [8 8 8]
  maxiter: 200
  mixer: {backend: pulay,
          beta: 0.05,
          method: separate,
          nmaxold: 8,
          weight: 100}
  mode: {ecut: 400.0,
         name: pw}
  occupations: {name: fermi-dirac,
                width: 0.02}
  spinpol: False
  xc: PBE

System changes: positions, numbers, cell, pbc, initial_charges, initial_magmoms 

Initialize ...

Ge-setup:
  name: Germanium
  id: 9ec617d8d148b76cb5ff523bd08bd36c
  Z: 32
  valence: 4
  core: 28
  charge: 0.0
  file: /usr/share/gpaw-setups/Ge.PBE.gz
  cutoffs: 1.01(comp), 1.77(filt), 3.42(core), lmax=2
  valence states:
                energy  radius
    4s(2.00)   -11.726   1.005
    4p(2.00)    -3.896   1.005
    *s          15.485   1.005
    *p          23.315   1.005
    *d           0.000   1.005

  Using partial waves for Ge as LCAO basis

Reference energy: -114195.275705

Spin-paired calculation

Occupation numbers:
  Fermi-Dirac: width=0.0200 eV

Convergence criteria:
  Maximum total energy change: 0.0005 eV / electron
  Maximum integral of absolute density change: 0.0001 electrons
  Maximum integral of absolute eigenstate change: 4e-08 eV^2
  Maximum number of iterations: 200

Symmetries present (total): 24

  ( 1  0  0)  ( 1  0  0)  ( 1  0 -1)  ( 1  0 -1)  ( 1 -1  0)  ( 1 -1  0)
  ( 0  1  0)  ( 0  0  1)  ( 0  1 -1)  ( 0  0 -1)  ( 0 -1  1)  ( 0 -1  0)
  ( 0  0  1)  ( 0  1  0)  ( 0  0 -1)  ( 0  1 -1)  ( 0 -1  0)  ( 0 -1  1)

  ( 0  1  0)  ( 0  1  0)  ( 0  1 -1)  ( 0  1 -1)  ( 0  0  1)  ( 0  0  1)
  ( 1  0  0)  ( 0  0  1)  ( 1  0 -1)  ( 0  0 -1)  ( 1  0  0)  ( 0  1  0)
  ( 0  0  1)  ( 1  0  0)  ( 0  0 -1)  ( 1  0 -1)  ( 0  1  0)  ( 1  0  0)

  ( 0  0 -1)  ( 0  0 -1)  ( 0 -1  1)  ( 0 -1  1)  ( 0 -1  0)  ( 0 -1  0)
  ( 1  0 -1)  ( 0  1 -1)  ( 1 -1  0)  ( 0 -1  0)  ( 1 -1  0)  ( 0 -1  1)
  ( 0  1 -1)  ( 1  0 -1)  ( 0 -1  0)  ( 1 -1  0)  ( 0 -1  1)  ( 1 -1  0)

  (-1  1  0)  (-1  1  0)  (-1  0  1)  (-1  0  1)  (-1  0  0)  (-1  0  0)
  (-1  0  1)  (-1  0  0)  (-1  1  0)  (-1  0  0)  (-1  1  0)  (-1  0  1)
  (-1  0  0)  (-1  0  1)  (-1  0  0)  (-1  1  0)  (-1  0  1)  (-1  1  0)
Note: your k-points are not as symmetric as your crystal!

512 k-points: 8 x 8 x 8 Monkhorst-Pack grid
60 k-points in the irreducible part of the Brillouin zone
       k-points in crystal coordinates                weights
   0:     0.06250000    0.06250000   -0.06250000          6/512
   1:     0.06250000    0.06250000    0.06250000          2/512
   2:     0.18750000   -0.06250000   -0.06250000          6/512
   3:     0.18750000    0.06250000   -0.18750000         12/512
   4:     0.18750000    0.06250000   -0.06250000         12/512
   5:     0.18750000    0.06250000    0.06250000          6/512
   6:     0.18750000    0.18750000   -0.18750000          6/512
   7:     0.18750000    0.18750000   -0.06250000          6/512
   8:     0.18750000    0.18750000    0.06250000          6/512
   9:     0.18750000    0.18750000    0.18750000          2/512
          ...
  59:     0.43750000    0.43750000    0.43750000          2/512

Wave functions: Plane wave expansion
  Cutoff energy: 400.000 eV
  Number of coefficients (min, max): 811, 857
  Using FFTW library
  Eigensolver: None  MatrixOperator buffer_size: default value or 
                              see value of nblock in input file
Diagonalizer layout: Serial LAPACKOrthonormalizer layout: Serial LAPACK 

Davidson(niter=1, smin=None, normalize=True) 

Densities:
  Coarse grid: 15*15*15 grid
  Fine grid: 30*30*30 grid
  Total Charge: 0.000000 

Density mixing:
  Method: separate
  Backend: pulay
  Linear mixing parameter: 0.05
  Mixing with 8 old densities
  Damping of long wave oscillations: 100 

Hamiltonian:
  XC and Coulomb potentials evaluated on a 30*30*30 grid
  Using the PBE Exchange-Correlation functional
 

Memory estimate:
  Process memory now: 923.47 MiB
  Calculator: 14.72 MiB
    Density: 1.54 MiB
      Arrays: 0.67 MiB
      Localized functions: 0.46 MiB
      Mixer: 0.41 MiB
    Hamiltonian: 0.45 MiB
      Arrays: 0.44 MiB
      XC: 0.00 MiB
      Poisson: 0.00 MiB
      vbar: 0.01 MiB
    Wavefunctions: 12.73 MiB
      Arrays psit_nG: 6.28 MiB
      Eigensolver: 0.18 MiB
      Projections: 0.19 MiB
      Projectors: 5.28 MiB
      Overlap op: 0.11 MiB
      PW-descriptor: 0.69 MiB

Total number of cores used: 1

Number of atoms: 2
Number of atomic orbitals: 8
Number of bands in calculation: 8
Bands to converge: occupied states only
Number of valence electrons: 8

... initialized

Initializing position-dependent things.

Density initialized from atomic densities
Creating initial wave functions:
  8 bands from LCAO basis set

                    
                    
                    
                    
           Ge       
                    
       Ge           
                    
                    
                    
                    

Positions:
   0 Ge     0.000000    0.000000    0.000000
   1 Ge     1.415000    1.415000    1.415000

Unit cell:
           periodic     x           y           z      points  spacing
  1. axis:    yes    0.000000    2.830000    2.830000    15     0.2179
  2. axis:    yes    2.830000    0.000000    2.830000    15     0.2179
  3. axis:    yes    2.830000    2.830000    0.000000    15     0.2179

  Lengths:   4.002224   4.002224   4.002224
  Angles:   60.000000  60.000000  60.000000

Effective grid spacing dv^(1/3) = 0.2377

                     log10-error:    total        iterations:
           time      wfs    density  energy       fermi  poisson
iter:   1  22:30:30  +1.34   +inf    -8.984537    2             
iter:   2  22:30:31  -0.46   +inf    -9.020892    2             
iter:   3  22:30:32  -1.65   +inf    -9.023669    1             
iter:   4  22:30:34  -2.44  -0.89    -9.019720    3             
iter:   5  22:30:35  -1.26  -0.91    -8.991216    16            
iter:   6  22:30:37  -2.25  -1.80    -8.989870    4             
iter:   7  22:30:38  -2.80  -1.91    -8.989122    3             
iter:   8  22:30:40  -3.30  -2.29    -8.988834    3             
iter:   9  22:30:41  -4.16  -2.77    -8.988842    2             
iter:  10  22:30:43  -4.55  -3.00    -8.988850    2             
iter:  11  22:30:44  -5.06  -3.53    -8.988851    2             
iter:  12  22:30:46  -5.66  -3.91    -8.988851    1             
iter:  13  22:30:47  -5.84  -3.79    -8.988851    1             
iter:  14  22:30:49  -6.26  -3.66    -8.988851    1             
iter:  15  22:30:50  -6.71  -4.06    -8.988851    1             
iter:  16  22:30:52  -7.19  -4.41    -8.988851    1             
iter:  17  22:30:53  -7.64  -4.49    -8.988851    1             

Converged after 17 iterations.

Dipole moment: (-3.206585, -3.206585, -3.206585) |e|*Ang

Energy contributions relative to reference atoms: (reference = -114195.275705)

Kinetic:        +26.165571
Potential:      -23.367932
External:        +0.000000
XC:             -11.785164
Entropy (-ST):   -0.000001
Local:           -0.001326
--------------------------
Free energy:     -8.988852
Extrapolated:    -8.988851

Fermi level: 6.03914

Warning: Showing only first 2 kpts
 Kpt  Band  Eigenvalues  Occupancy
  0     2      5.39335    0.02344
  0     3      5.48105    0.02344
  0     4      7.55042    0.00000
  0     5      8.33339    0.00000

  1     2      5.86538    0.00781
  1     3      5.86538    0.00781
  1     4      6.82783    0.00000
  1     5      8.65663    0.00000


Input parameters:
  convergence: {bands: all}
  eigensolver: {name: cg,
                niter: 5}
  fixdensity: True
  kpts: {npoints: 50,
         path: LGXUG}
  nbands: -4
  symmetry: off

Initialize ...

Ge-setup:
  name: Germanium
  id: 9ec617d8d148b76cb5ff523bd08bd36c
  Z: 32
  valence: 4
  core: 28
  charge: 0.0
  file: /usr/share/gpaw-setups/Ge.PBE.gz
  cutoffs: 1.01(comp), 1.77(filt), 3.42(core), lmax=2
  valence states:
                energy  radius
    4s(2.00)   -11.726   1.005
    4p(2.00)    -3.896   1.005
    *s          15.485   1.005
    *p          23.315   1.005
    *d           0.000   1.005

  Using partial waves for Ge as LCAO basis

Reference energy: -114195.275705

Spin-paired calculation

Occupation numbers:
  Fixed Fermi level
  Fermi-Dirac: width=0.0200 eV

Convergence criteria:
  Maximum total energy change: 0.0005 eV / electron
  Maximum integral of absolute density change: 0.0001 electrons
  Maximum integral of absolute eigenstate change: 4e-08 eV^2
  Maximum number of iterations: 200

Symmetries present (total): 1

  ( 1  0  0)
  ( 0  1  0)
  ( 0  0  1)

50 k-points
50 k-points in the irreducible part of the Brillouin zone
       k-points in crystal coordinates                weights
   0:     0.50000000    0.50000000    0.50000000          1/50
   1:     0.45833333    0.45833333    0.45833333          1/50
   2:     0.41666667    0.41666667    0.41666667          1/50
   3:     0.37500000    0.37500000    0.37500000          1/50
   4:     0.33333333    0.33333333    0.33333333          1/50
   5:     0.29166667    0.29166667    0.29166667          1/50
   6:     0.25000000    0.25000000    0.25000000          1/50
   7:     0.20833333    0.20833333    0.20833333          1/50
   8:     0.16666667    0.16666667    0.16666667          1/50
   9:     0.12500000    0.12500000    0.12500000          1/50
          ...
  49:     0.00000000    0.00000000    0.00000000          1/50

Wave functions: Plane wave expansion
  Cutoff energy: 400.000 eV
  Number of coefficients (min, max): 798, 869
  Using FFTW library
  Eigensolver: None  MatrixOperator buffer_size: default value or 
                              see value of nblock in input file
Diagonalizer layout: Serial LAPACKOrthonormalizer layout: Serial LAPACK 

CG(niter=5, rtol=3.0e-01) 

No density mixing

Memory estimate:
  Process memory now: 980.37 MiB
  Calculator: 12.77 MiB
    Density: 1.54 MiB
      Arrays: 0.67 MiB
      Localized functions: 0.46 MiB
      Mixer: 0.41 MiB
    Hamiltonian: 0.45 MiB
      Arrays: 0.44 MiB
      XC: 0.00 MiB
      Poisson: 0.00 MiB
      vbar: 0.01 MiB
    Wavefunctions: 10.79 MiB
      Arrays psit_nG: 5.30 MiB
      Eigensolver: 0.17 MiB
      Projections: 0.16 MiB
      Projectors: 4.44 MiB
      Overlap op: 0.11 MiB
      PW-descriptor: 0.60 MiB

Total number of cores used: 1

Number of atoms: 2
Number of atomic orbitals: 8
Number of bands in calculation: 8
Bands to converge: all
Number of valence electrons: 8

... initialized

Initializing position-dependent things.

Creating initial wave functions:
  8 bands from LCAO basis set

                    
                    
                    
                    
           Ge       
                    
       Ge           
                    
                    
                    
                    

Positions:
   0 Ge     0.000000    0.000000    0.000000
   1 Ge     1.415000    1.415000    1.415000

Unit cell:
           periodic     x           y           z      points  spacing
  1. axis:    yes    0.000000    2.830000    2.830000    15     0.2179
  2. axis:    yes    2.830000    0.000000    2.830000    15     0.2179
  3. axis:    yes    2.830000    2.830000    0.000000    15     0.2179

  Lengths:   4.002224   4.002224   4.002224
  Angles:   60.000000  60.000000  60.000000

Effective grid spacing dv^(1/3) = 0.2377

                     log10-error:    total        iterations:
           time      wfs    density  energy       fermi  poisson
iter:   1  22:30:58  +1.29           -3.396047    4             
iter:   2  22:31:01  +0.24           -3.435885    4             
iter:   3  22:31:04  -0.70           -3.439272    4             
iter:   4  22:31:07  -1.53           -3.439651    4             
iter:   5  22:31:11  -2.34           -3.439712    4             
iter:   6  22:31:14  -3.12           -3.439716    4             
iter:   7  22:31:17  -3.80           -3.439717    4             
iter:   8  22:31:20  -4.56           -3.439717    4             
iter:   9  22:31:23  -5.22           -3.439717    4             
iter:  10  22:31:26  -5.89           -3.439717    4             
iter:  11  22:31:27  -6.49           -3.439717    4             
iter:  12  22:31:28  -7.12           -3.439717    4             
iter:  13  22:31:29  -7.67           -3.439717    4             

Converged after 13 iterations.

Dipole moment: (-3.206527, -3.206527, -3.206527) |e|*Ang

Energy contributions relative to reference atoms: (reference = -114195.275705)

Kinetic:        +31.718463
Potential:      -23.370882
External:        +0.000000
XC:             -11.786851
Entropy (-ST):   -0.002048
Local:           +0.000576
--------------------------
Free energy:     -3.440741
Extrapolated:    -3.439717

Fixed Fermi level: 6.03914

Warning: Showing only first 2 kpts
 Kpt  Band  Eigenvalues  Occupancy
  0     2      4.56274    0.04000
  0     3      4.56274    0.04000
  0     4      6.16633    0.00002
  0     5      9.71196    0.00000

  1     2      4.57775    0.04000
  1     3      4.57775    0.04000
  1     4      6.18091    0.00001
  1     5      9.71823    0.00000


Timing:                              incl.     excl.
-----------------------------------------------------------
Hamiltonian:                         0.798     0.001   0.0% |
 Atomic:                             0.656     0.004   0.0% |
  XC Correction:                     0.652     0.652   1.0% |
 Calculate atomic Hamiltonians:      0.026     0.026   0.0% |
 Communicate:                        0.000     0.000   0.0% |
 Initialize Hamiltonian:             0.000     0.000   0.0% |
 Poisson:                            0.000     0.000   0.0% |
 XC 3D grid:                         0.114     0.114   0.2% |
LCAO initialization:                 2.143     0.109   0.2% |
 LCAO eigensolver:                   0.689     0.010   0.0% |
  Calculate projections:             0.004     0.004   0.0% |
  DenseAtomicCorrection:             0.024     0.024   0.0% |
  Distribute overlap matrix:         0.004     0.004   0.0% |
  Orbital Layouts:                   0.037     0.037   0.1% |
  Potential matrix:                  0.059     0.059   0.1% |
  Sum over cells:                    0.551     0.551   0.9% |
 LCAO to grid:                       0.461     0.461   0.7% |
 Set positions (LCAO WFS):           0.883     0.001   0.0% |
  Basic WFS set positions:           0.005     0.005   0.0% |
  Basis functions set positions:     0.000     0.000   0.0% |
  TCI: Calculate S, T, P:            0.877     0.877   1.4% ||
PWDescriptor:                        0.031     0.031   0.0% |
Redistribute:                        0.000     0.000   0.0% |
SCF-cycle:                          57.654     1.441   2.3% ||
 CG:                                29.080    27.118  43.0% |----------------|
  CG: orthonormalize:                1.962     1.109   1.8% ||
   CG: overlap:                      0.492     0.492   0.8% |
   CG: overlap2:                     0.361     0.361   0.6% |
 Davidson:                          12.695     8.291  13.1% |----|
  calc. matrices:                    3.032     3.032   4.8% |-|
  diagonalize:                       0.901     0.901   1.4% ||
  rotate_psi:                        0.471     0.471   0.7% |
 Density:                            2.166     0.001   0.0% |
  Atomic density matrices:           0.041     0.041   0.1% |
  Mix:                               0.218     0.218   0.3% |
  Multipole moments:                 0.002     0.002   0.0% |
  Pseudo density:                    1.904     1.817   2.9% ||
   Symmetrize density:               0.088     0.088   0.1% |
 Hamiltonian:                        5.241     0.010   0.0% |
  Atomic:                            4.435     0.024   0.0% |
   XC Correction:                    4.410     4.410   7.0% |--|
  Calculate atomic Hamiltonians:     0.162     0.162   0.3% |
  Communicate:                       0.000     0.000   0.0% |
  Poisson:                           0.004     0.004   0.0% |
  XC 3D grid:                        0.630     0.630   1.0% |
 Orthonormalize:                     0.298     0.009   0.0% |
  Band Layouts:                      0.006     0.002   0.0% |
   Inverse Cholesky:                 0.004     0.004   0.0% |
  calc_s_matrix:                     0.026     0.026   0.0% |
  projections:                       0.235     0.235   0.4% |
  rotate_psi:                        0.023     0.023   0.0% |
 Residuals:                          1.583     1.583   2.5% ||
 Subspace diag:                      5.150     0.219   0.3% |
  Band Layouts:                      0.467     0.060   0.1% |
   Diagonalize:                      0.362     0.362   0.6% |
   Distribute results:               0.045     0.045   0.1% |
  calc_h_matrix:                     3.841     3.841   6.1% |-|
  rotate_psi:                        0.623     0.623   1.0% |
Set symmetry:                        0.149     0.149   0.2% |
Other:                               2.338     2.338   3.7% ||
-----------------------------------------------------------
Total:                                        63.115 100.0%

Date: Tue Feb  2 22:31:30 2021
element =  Ge
struct =  diamond
kpts =  (8,8,8)
element =  Ge
configuration =  [Ar] 3d10 4s2 4p2 4d0
valence =  ['4s', '4p', '4d']
occupations =  {'4s': 2, '4p': 2, '4d': 0}
nls =  4p
rNum =  600
lmax =  d
*******************************************
Starting confinement parameter optimization
Adjustable parameters and initial values:
  Ge_4d.r0 : 4.535343
  Ge_4p.r0 : 4.535343
  Ge_4s.r0 : 4.535343
  Ge_n.r0 : 6.803014
*******************************************

OPT_VAL: 4.535342702008628   4.535342702008628   4.535342702008628   6.803014053012943
VCONF:
  Ge_4d : PowerConfinement(r0=4.535343, s=2.000000)
  Ge_4p : PowerConfinement(r0=4.535343, s=2.000000)
  Ge_4s : PowerConfinement(r0=4.535343, s=2.000000)
  Ge_n : PowerConfinement(r0=6.803014, s=2.000000)
RESIDUAL: 0.0

OPT_VAL: 4.735342702008628   4.535342702008628   4.535342702008628   6.803014053012943
VCONF:
  Ge_4d : PowerConfinement(r0=4.735343, s=2.000000)
  Ge_4p : PowerConfinement(r0=4.535343, s=2.000000)
  Ge_4s : PowerConfinement(r0=4.535343, s=2.000000)
  Ge_n : PowerConfinement(r0=6.803014, s=2.000000)
RESIDUAL: 0.0

OPT_VAL: 4.535342702008628   4.735342702008628   4.535342702008628   6.803014053012943
VCONF:
  Ge_4d : PowerConfinement(r0=4.535343, s=2.000000)
  Ge_4p : PowerConfinement(r0=4.735343, s=2.000000)
  Ge_4s : PowerConfinement(r0=4.535343, s=2.000000)
  Ge_n : PowerConfinement(r0=6.803014, s=2.000000)
RESIDUAL: 0.0

OPT_VAL: 4.535342702008628   4.535342702008628   4.735342702008628   6.803014053012943
VCONF:
  Ge_4d : PowerConfinement(r0=4.535343, s=2.000000)
  Ge_4p : PowerConfinement(r0=4.535343, s=2.000000)
  Ge_4s : PowerConfinement(r0=4.735343, s=2.000000)
  Ge_n : PowerConfinement(r0=6.803014, s=2.000000)
RESIDUAL: 0.0

OPT_VAL: 4.535342702008628   4.535342702008628   4.535342702008628   7.003014053012943
VCONF:
  Ge_4d : PowerConfinement(r0=4.535343, s=2.000000)
  Ge_4p : PowerConfinement(r0=4.535343, s=2.000000)
  Ge_4s : PowerConfinement(r0=4.535343, s=2.000000)
  Ge_n : PowerConfinement(r0=7.003014, s=2.000000)
RESIDUAL: 0.0

OPT_VAL: 4.5603427020086285   4.535342702008628   4.535342702008628   6.803014053012943
VCONF:
  Ge_4d : PowerConfinement(r0=4.560343, s=2.000000)
  Ge_4p : PowerConfinement(r0=4.535343, s=2.000000)
  Ge_4s : PowerConfinement(r0=4.535343, s=2.000000)
  Ge_n : PowerConfinement(r0=6.803014, s=2.000000)
RESIDUAL: 0.0

OPT_VAL: 4.535342702008628   4.5603427020086285   4.535342702008628   6.803014053012943
VCONF:
  Ge_4d : PowerConfinement(r0=4.535343, s=2.000000)
  Ge_4p : PowerConfinement(r0=4.560343, s=2.000000)
  Ge_4s : PowerConfinement(r0=4.535343, s=2.000000)
  Ge_n : PowerConfinement(r0=6.803014, s=2.000000)
RESIDUAL: 0.0

OPT_VAL: 4.535342702008628   4.535342702008628   4.5603427020086285   6.803014053012943
VCONF:
  Ge_4d : PowerConfinement(r0=4.535343, s=2.000000)
  Ge_4p : PowerConfinement(r0=4.535343, s=2.000000)
  Ge_4s : PowerConfinement(r0=4.560343, s=2.000000)
  Ge_n : PowerConfinement(r0=6.803014, s=2.000000)
RESIDUAL: 0.0

OPT_VAL: 4.535342702008628   4.535342702008628   4.535342702008628   6.828014053012943
VCONF:
  Ge_4d : PowerConfinement(r0=4.535343, s=2.000000)
  Ge_4p : PowerConfinement(r0=4.535343, s=2.000000)
  Ge_4s : PowerConfinement(r0=4.535343, s=2.000000)
  Ge_n : PowerConfinement(r0=6.828014, s=2.000000)
RESIDUAL: 0.0

OPT_VAL: 4.540342702008628   4.535342702008628   4.535342702008628   6.803014053012943
VCONF:
  Ge_4d : PowerConfinement(r0=4.540343, s=2.000000)
  Ge_4p : PowerConfinement(r0=4.535343, s=2.000000)
  Ge_4s : PowerConfinement(r0=4.535343, s=2.000000)
  Ge_n : PowerConfinement(r0=6.803014, s=2.000000)
RESIDUAL: 0.0

OPT_VAL: 4.535342702008628   4.540342702008628   4.535342702008628   6.803014053012943
VCONF:
  Ge_4d : PowerConfinement(r0=4.535343, s=2.000000)
  Ge_4p : PowerConfinement(r0=4.540343, s=2.000000)
  Ge_4s : PowerConfinement(r0=4.535343, s=2.000000)
  Ge_n : PowerConfinement(r0=6.803014, s=2.000000)
RESIDUAL: 0.0

OPT_VAL: 4.535342702008628   4.535342702008628   4.540342702008628   6.803014053012943
VCONF:
  Ge_4d : PowerConfinement(r0=4.535343, s=2.000000)
  Ge_4p : PowerConfinement(r0=4.535343, s=2.000000)
  Ge_4s : PowerConfinement(r0=4.540343, s=2.000000)
  Ge_n : PowerConfinement(r0=6.803014, s=2.000000)
RESIDUAL: 0.0

OPT_VAL: 4.535342702008628   4.535342702008628   4.535342702008628   6.8080140530129425
VCONF:
  Ge_4d : PowerConfinement(r0=4.535343, s=2.000000)
  Ge_4p : PowerConfinement(r0=4.535343, s=2.000000)
  Ge_4s : PowerConfinement(r0=4.535343, s=2.000000)
  Ge_n : PowerConfinement(r0=6.808014, s=2.000000)
RESIDUAL: 0.0

*******************************************
Optimization finished after 13 iterations
Adjustable parameters and final values:
  Ge_4d.r0 : 4.535343
  Ge_4p.r0 : 4.535343
  Ge_4s.r0 : 4.535343
  Ge_n.r0 : 6.803014
*******************************************

VCONF:
  Ge_4d : PowerConfinement(r0=4.535343, s=2.000000)
  Ge_4p : PowerConfinement(r0=4.535343, s=2.000000)
  Ge_4s : PowerConfinement(r0=4.535343, s=2.000000)
  Ge_n : PowerConfinement(r0=6.803014, s=2.000000)
