
     Program PWSCF v.6.0 (svn rev. 13079) starts on 25Feb2021 at 22:18: 4 

     This program is part of the open-source Quantum ESPRESSO suite
     for quantum simulation of materials; please cite
         "P. Giannozzi et al., J. Phys.:Condens. Matter 21 395502 (2009);
          URL http://www.quantum-espresso.org", 
     in publications or presentations arising from this work. More details at
     http://www.quantum-espresso.org/quote

     Parallel version (MPI), running on     1 processors
     Reading input from espresso.pwi
Warning: card &IONS ignored
Warning: card / ignored
Warning: card &CELL ignored
Warning: card / ignored

     Current dimensions of program PWSCF are:
     Max number of different atomic species (ntypx) = 10
     Max number of k-points (npk) =  40000
     Max angular momentum in pseudopotentials (lmaxx) =  3
     Message from routine input:
     WARNING: "startingwfc" set to atomic+random may spoil restart

     Atomic positions and unit cell read from directory:
     ./pwscf.save/


     IMPORTANT: XC functional enforced from input :
     Exchange-correlation      = PBE ( 1  4  3  4 0 0)
     Any further DFT definition will be discarded
     Please, verify this is what you really want


     Subspace diagonalization in iterative solution of the eigenvalue problem:
     a serial algorithm will be used


     G-vector sticks info
     --------------------
     sticks:   dense  smooth     PW     G-vecs:    dense   smooth      PW
     Sum         499     397    121                14377    10311    1785



     bravais-lattice index     =            0
     lattice parameter (alat)  =       6.0396  a.u.
     unit-cell volume          =     301.5214 (a.u.)^3
     number of atoms/cell      =            2
     number of atomic types    =            1
     number of electrons       =        24.00
     number of Kohn-Sham states=           16
     kinetic-energy cutoff     =      40.0000  Ry
     charge density cutoff     =     200.0000  Ry
     Exchange-correlation      = PBE ( 1  4  3  4 0 0)

     celldm(1)=   6.039565  celldm(2)=   0.000000  celldm(3)=   0.000000
     celldm(4)=   0.000000  celldm(5)=   0.000000  celldm(6)=   0.000000

     crystal axes: (cart. coord. in units of alat)
               a(1) = (   1.000000   0.000000   0.000000 )  
               a(2) = (  -0.500000   0.866025   0.000000 )  
               a(3) = (   0.000000   0.000000   1.580413 )  

     reciprocal axes: (cart. coord. in units 2 pi/alat)
               b(1) = (  1.000000  0.577350 -0.000000 )  
               b(2) = (  0.000000  1.154701  0.000000 )  
               b(3) = (  0.000000 -0.000000  0.632746 )  


     PseudoPot. # 1 for Hf read from file:
     /home/inukai/tango/tests/1element/qe_fit_v2_Hf/../pseudo/hf_pbe_v1.uspp.F.UPF
     MD5 check sum: 8ee9378dfe14276e333edf04c5e4aa26
     Pseudo is Ultrasoft + core correction, Zval = 12.0
     Generated by new atomic code, or converted to UPF format
     Using radial grid of  921 points,  8 beta functions with: 
                l(1) =   0
                l(2) =   0
                l(3) =   0
                l(4) =   1
                l(5) =   1
                l(6) =   2
                l(7) =   2
                l(8) =   3
     Q(r) pseudized with  6 coefficients,  rinner =    1.200   1.200   1.200
                                                       1.200   1.200   1.200
                                                       1.200

     atomic species   valence    mass     pseudopotential
        Hf            12.00   178.49000     Hf( 1.00)

     12 Sym. Ops. (no inversion) found
          (note: 12 additional sym.ops. were found but ignored
           their fractional translations are incommensurate with FFT grid)

                                    s                        frac. trans.

      isym =  1     identity                                     

 cryst.   s( 1) = (     1          0          0      )
                  (     0          1          0      )
                  (     0          0          1      )

 cart.    s( 1) = (  1.0000000  0.0000000  0.0000000 )
                  (  0.0000000  1.0000000  0.0000000 )
                  (  0.0000000  0.0000000  1.0000000 )


      isym =  2     180 deg rotation - cart. axis [0,1,0]        

 cryst.   s( 2) = (    -1          0          0      )
                  (     1          1          0      )
                  (     0          0         -1      )

 cart.    s( 2) = ( -1.0000000  0.0000000  0.0000000 )
                  (  0.0000000  1.0000000  0.0000000 )
                  (  0.0000000  0.0000000 -1.0000000 )


      isym =  3     120 deg rotation - cryst. axis [0,0,1]       

 cryst.   s( 3) = (     0          1          0      )
                  (    -1         -1          0      )
                  (     0          0          1      )

 cart.    s( 3) = ( -0.5000000 -0.8660254  0.0000000 )
                  (  0.8660254 -0.5000000  0.0000000 )
                  (  0.0000000  0.0000000  1.0000000 )


      isym =  4     120 deg rotation - cryst. axis [0,0,-1]      

 cryst.   s( 4) = (    -1         -1          0      )
                  (     1          0          0      )
                  (     0          0          1      )

 cart.    s( 4) = ( -0.5000000  0.8660254  0.0000000 )
                  ( -0.8660254 -0.5000000  0.0000000 )
                  (  0.0000000  0.0000000  1.0000000 )


      isym =  5     180 deg rotation - cryst. axis [1,-1,0]      

 cryst.   s( 5) = (     0         -1          0      )
                  (    -1          0          0      )
                  (     0          0         -1      )

 cart.    s( 5) = (  0.5000000 -0.8660254  0.0000000 )
                  ( -0.8660254 -0.5000000  0.0000000 )
                  (  0.0000000  0.0000000 -1.0000000 )


      isym =  6     180 deg rotation - cryst. axis [2,1,0]       

 cryst.   s( 6) = (     1          1          0      )
                  (     0         -1          0      )
                  (     0          0         -1      )

 cart.    s( 6) = (  0.5000000  0.8660254  0.0000000 )
                  (  0.8660254 -0.5000000  0.0000000 )
                  (  0.0000000  0.0000000 -1.0000000 )


      isym =  7     inv. 180 deg rotation - cart. axis [0,0,1]   

 cryst.   s( 7) = (     1          0          0      )
                  (     0          1          0      )
                  (     0          0         -1      )

 cart.    s( 7) = (  1.0000000  0.0000000  0.0000000 )
                  (  0.0000000  1.0000000  0.0000000 )
                  (  0.0000000  0.0000000 -1.0000000 )


      isym =  8     inv. 180 deg rotation - cart. axis [1,0,0]   

 cryst.   s( 8) = (    -1          0          0      )
                  (     1          1          0      )
                  (     0          0          1      )

 cart.    s( 8) = ( -1.0000000  0.0000000  0.0000000 )
                  (  0.0000000  1.0000000  0.0000000 )
                  (  0.0000000  0.0000000  1.0000000 )


      isym =  9     inv.  60 deg rotation - cryst. axis [0,0,1]  

 cryst.   s( 9) = (    -1         -1          0      )
                  (     1          0          0      )
                  (     0          0         -1      )

 cart.    s( 9) = ( -0.5000000  0.8660254  0.0000000 )
                  ( -0.8660254 -0.5000000  0.0000000 )
                  (  0.0000000  0.0000000 -1.0000000 )


      isym = 10     inv.  60 deg rotation - cryst. axis [0,0,-1] 

 cryst.   s(10) = (     0          1          0      )
                  (    -1         -1          0      )
                  (     0          0         -1      )

 cart.    s(10) = ( -0.5000000 -0.8660254  0.0000000 )
                  (  0.8660254 -0.5000000  0.0000000 )
                  (  0.0000000  0.0000000 -1.0000000 )


      isym = 11     inv. 180 deg rotation - cryst. axis [0,1,0]  

 cryst.   s(11) = (     1          1          0      )
                  (     0         -1          0      )
                  (     0          0          1      )

 cart.    s(11) = (  0.5000000  0.8660254  0.0000000 )
                  (  0.8660254 -0.5000000  0.0000000 )
                  (  0.0000000  0.0000000  1.0000000 )


      isym = 12     inv. 180 deg rotation - cryst. axis [1,1,0]  

 cryst.   s(12) = (     0         -1          0      )
                  (    -1          0          0      )
                  (     0          0          1      )

 cart.    s(12) = (  0.5000000 -0.8660254  0.0000000 )
                  ( -0.8660254 -0.5000000  0.0000000 )
                  (  0.0000000  0.0000000  1.0000000 )


   Cartesian axes

     site n.     atom                  positions (alat units)
         1           Hf  tau(   1) = (   0.0000000   0.0000000   0.0000000  )
         2           Hf  tau(   2) = (  -0.0000000   0.5773503   0.7902065  )

   Crystallographic axes

     site n.     atom                  positions (cryst. coord.)
         1           Hf  tau(   1) = (  0.0000000  0.0000000  0.0000000  )
         2           Hf  tau(   2) = (  0.3333333  0.6666667  0.5000000  )

     number of k points=    50  gaussian smearing, width (Ry)=  0.0010
                       cart. coord. in units 2pi/alat
        k(    1) = (   0.0000000   0.0000000   0.0000000), wk =   0.0400000
        k(    2) = (   0.0357143   0.0206197   0.0000000), wk =   0.0400000
        k(    3) = (   0.0714286   0.0412393   0.0000000), wk =   0.0400000
        k(    4) = (   0.1071429   0.0618590   0.0000000), wk =   0.0400000
        k(    5) = (   0.1428571   0.0824786   0.0000000), wk =   0.0400000
        k(    6) = (   0.1785714   0.1030983   0.0000000), wk =   0.0400000
        k(    7) = (   0.2142857   0.1237179   0.0000000), wk =   0.0400000
        k(    8) = (   0.2500000   0.1443376   0.0000000), wk =   0.0400000
        k(    9) = (   0.2857143   0.1649572   0.0000000), wk =   0.0400000
        k(   10) = (   0.3214286   0.1855769   0.0000000), wk =   0.0400000
        k(   11) = (   0.3571429   0.2061965   0.0000000), wk =   0.0400000
        k(   12) = (   0.3928571   0.2268162   0.0000000), wk =   0.0400000
        k(   13) = (   0.4285714   0.2474358   0.0000000), wk =   0.0400000
        k(   14) = (   0.4642857   0.2680555   0.0000000), wk =   0.0400000
        k(   15) = (   0.5000000   0.2886751   0.0000000), wk =   0.0400000
        k(   16) = (   0.4791667   0.3247595   0.0000000), wk =   0.0400000
        k(   17) = (   0.4583333   0.3608439   0.0000000), wk =   0.0400000
        k(   18) = (   0.4375000   0.3969283   0.0000000), wk =   0.0400000
        k(   19) = (   0.4166667   0.4330127   0.0000000), wk =   0.0400000
        k(   20) = (   0.3958333   0.4690971   0.0000000), wk =   0.0400000
        k(   21) = (   0.3750000   0.5051815   0.0000000), wk =   0.0400000
        k(   22) = (   0.3541667   0.5412659   0.0000000), wk =   0.0400000
        k(   23) = (   0.3333333   0.5773503   0.0000000), wk =   0.0400000
        k(   24) = (   0.3148148   0.5452753   0.0000000), wk =   0.0400000
        k(   25) = (   0.2962963   0.5132002   0.0000000), wk =   0.0400000
        k(   26) = (   0.2777778   0.4811252   0.0000000), wk =   0.0400000
        k(   27) = (   0.2592593   0.4490502   0.0000000), wk =   0.0400000
        k(   28) = (   0.2407407   0.4169752   0.0000000), wk =   0.0400000
        k(   29) = (   0.2222222   0.3849002   0.0000000), wk =   0.0400000
        k(   30) = (   0.2037037   0.3528252   0.0000000), wk =   0.0400000
        k(   31) = (   0.1851852   0.3207501   0.0000000), wk =   0.0400000
        k(   32) = (   0.1666667   0.2886751   0.0000000), wk =   0.0400000
        k(   33) = (   0.1481481   0.2566001   0.0000000), wk =   0.0400000
        k(   34) = (   0.1296296   0.2245251   0.0000000), wk =   0.0400000
        k(   35) = (   0.1111111   0.1924501   0.0000000), wk =   0.0400000
        k(   36) = (   0.0925926   0.1603751   0.0000000), wk =   0.0400000
        k(   37) = (   0.0740741   0.1283001   0.0000000), wk =   0.0400000
        k(   38) = (   0.0555556   0.0962250   0.0000000), wk =   0.0400000
        k(   39) = (   0.0370370   0.0641500   0.0000000), wk =   0.0400000
        k(   40) = (   0.0185185   0.0320750   0.0000000), wk =   0.0400000
        k(   41) = (   0.0000000   0.0000000   0.0000000), wk =   0.0400000
        k(   42) = (   0.0000000   0.0000000   0.0351526), wk =   0.0400000
        k(   43) = (   0.0000000   0.0000000   0.0703051), wk =   0.0400000
        k(   44) = (   0.0000000   0.0000000   0.1054577), wk =   0.0400000
        k(   45) = (   0.0000000   0.0000000   0.1406102), wk =   0.0400000
        k(   46) = (   0.0000000   0.0000000   0.1757628), wk =   0.0400000
        k(   47) = (   0.0000000   0.0000000   0.2109153), wk =   0.0400000
        k(   48) = (   0.0000000   0.0000000   0.2460679), wk =   0.0400000
        k(   49) = (   0.0000000   0.0000000   0.2812204), wk =   0.0400000
        k(   50) = (   0.0000000   0.0000000   0.3163730), wk =   0.0400000

                       cryst. coord.
        k(    1) = (   0.0000000   0.0000000   0.0000000), wk =   0.0400000
        k(    2) = (   0.0357143   0.0000000   0.0000000), wk =   0.0400000
        k(    3) = (   0.0714286  -0.0000000   0.0000000), wk =   0.0400000
        k(    4) = (   0.1071429   0.0000000   0.0000000), wk =   0.0400000
        k(    5) = (   0.1428571  -0.0000000   0.0000000), wk =   0.0400000
        k(    6) = (   0.1785714  -0.0000000   0.0000000), wk =   0.0400000
        k(    7) = (   0.2142857  -0.0000000   0.0000000), wk =   0.0400000
        k(    8) = (   0.2500000   0.0000000   0.0000000), wk =   0.0400000
        k(    9) = (   0.2857143  -0.0000000   0.0000000), wk =   0.0400000
        k(   10) = (   0.3214286   0.0000000   0.0000000), wk =   0.0400000
        k(   11) = (   0.3571429  -0.0000000   0.0000000), wk =   0.0400000
        k(   12) = (   0.3928571   0.0000000   0.0000000), wk =   0.0400000
        k(   13) = (   0.4285714   0.0000000   0.0000000), wk =   0.0400000
        k(   14) = (   0.4642857  -0.0000000   0.0000000), wk =   0.0400000
        k(   15) = (   0.5000000   0.0000000   0.0000000), wk =   0.0400000
        k(   16) = (   0.4791667   0.0416667   0.0000000), wk =   0.0400000
        k(   17) = (   0.4583333   0.0833333   0.0000000), wk =   0.0400000
        k(   18) = (   0.4375000   0.1250000   0.0000000), wk =   0.0400000
        k(   19) = (   0.4166667   0.1666667   0.0000000), wk =   0.0400000
        k(   20) = (   0.3958333   0.2083333   0.0000000), wk =   0.0400000
        k(   21) = (   0.3750000   0.2500000   0.0000000), wk =   0.0400000
        k(   22) = (   0.3541667   0.2916667   0.0000000), wk =   0.0400000
        k(   23) = (   0.3333333   0.3333333   0.0000000), wk =   0.0400000
        k(   24) = (   0.3148148   0.3148148   0.0000000), wk =   0.0400000
        k(   25) = (   0.2962963   0.2962963   0.0000000), wk =   0.0400000
        k(   26) = (   0.2777778   0.2777778   0.0000000), wk =   0.0400000
        k(   27) = (   0.2592593   0.2592593   0.0000000), wk =   0.0400000
        k(   28) = (   0.2407407   0.2407407   0.0000000), wk =   0.0400000
        k(   29) = (   0.2222222   0.2222222   0.0000000), wk =   0.0400000
        k(   30) = (   0.2037037   0.2037037   0.0000000), wk =   0.0400000
        k(   31) = (   0.1851852   0.1851852   0.0000000), wk =   0.0400000
        k(   32) = (   0.1666667   0.1666667   0.0000000), wk =   0.0400000
        k(   33) = (   0.1481481   0.1481481   0.0000000), wk =   0.0400000
        k(   34) = (   0.1296296   0.1296296   0.0000000), wk =   0.0400000
        k(   35) = (   0.1111111   0.1111111   0.0000000), wk =   0.0400000
        k(   36) = (   0.0925926   0.0925926   0.0000000), wk =   0.0400000
        k(   37) = (   0.0740741   0.0740741   0.0000000), wk =   0.0400000
        k(   38) = (   0.0555556   0.0555556   0.0000000), wk =   0.0400000
        k(   39) = (   0.0370370   0.0370370   0.0000000), wk =   0.0400000
        k(   40) = (   0.0185185   0.0185185   0.0000000), wk =   0.0400000
        k(   41) = (   0.0000000   0.0000000   0.0000000), wk =   0.0400000
        k(   42) = (   0.0000000   0.0000000   0.0555556), wk =   0.0400000
        k(   43) = (   0.0000000   0.0000000   0.1111111), wk =   0.0400000
        k(   44) = (   0.0000000   0.0000000   0.1666667), wk =   0.0400000
        k(   45) = (   0.0000000   0.0000000   0.2222222), wk =   0.0400000
        k(   46) = (   0.0000000   0.0000000   0.2777778), wk =   0.0400000
        k(   47) = (   0.0000000   0.0000000   0.3333333), wk =   0.0400000
        k(   48) = (   0.0000000   0.0000000   0.3888889), wk =   0.0400000
        k(   49) = (   0.0000000   0.0000000   0.4444444), wk =   0.0400000
        k(   50) = (   0.0000000   0.0000000   0.5000000), wk =   0.0400000

     Dense  grid:    14377 G-vectors     FFT dimensions: (  27,  27,  45)

     Smooth grid:    10311 G-vectors     FFT dimensions: (  25,  25,  40)

     Estimated max dynamical RAM per process >      23.71Mb

     Check: negative/imaginary core charge=   -0.000011    0.000000

     The potential is recalculated from file :
     ./pwscf.save/charge-density.dat


     negative rho (up, down):  2.200E-01 0.000E+00
     Starting wfc are   26 randomized atomic wfcs

     Band Structure Calculation
     Davidson diagonalization with overlap

     Computing kpt #:     1
     total cpu time spent up to now is        1.2 secs

     Computing kpt #:     2
     total cpu time spent up to now is        1.5 secs

     Computing kpt #:     3
     total cpu time spent up to now is        1.7 secs

     Computing kpt #:     4
     total cpu time spent up to now is        2.1 secs

     Computing kpt #:     5
     total cpu time spent up to now is        2.4 secs

     Computing kpt #:     6
     total cpu time spent up to now is        2.7 secs

     Computing kpt #:     7
     total cpu time spent up to now is        3.0 secs

     Computing kpt #:     8
     total cpu time spent up to now is        3.3 secs

     Computing kpt #:     9
     total cpu time spent up to now is        3.7 secs

     Computing kpt #:    10
     total cpu time spent up to now is        4.2 secs

     Computing kpt #:    11
     total cpu time spent up to now is        4.7 secs

     Computing kpt #:    12
     total cpu time spent up to now is        5.5 secs

     Computing kpt #:    13
     total cpu time spent up to now is        6.0 secs

     Computing kpt #:    14
     total cpu time spent up to now is        6.4 secs

     Computing kpt #:    15
     total cpu time spent up to now is        6.8 secs

     Computing kpt #:    16
     total cpu time spent up to now is        7.1 secs

     Computing kpt #:    17
     total cpu time spent up to now is        7.6 secs

     Computing kpt #:    18
     total cpu time spent up to now is        8.0 secs

     Computing kpt #:    19
     total cpu time spent up to now is        8.4 secs

     Computing kpt #:    20
     total cpu time spent up to now is        8.7 secs

     Computing kpt #:    21
     total cpu time spent up to now is        9.1 secs

     Computing kpt #:    22
     total cpu time spent up to now is        9.5 secs

     Computing kpt #:    23
     total cpu time spent up to now is        9.9 secs

     Computing kpt #:    24
     total cpu time spent up to now is       10.2 secs

     Computing kpt #:    25
     total cpu time spent up to now is       10.6 secs

     Computing kpt #:    26
     total cpu time spent up to now is       10.9 secs

     Computing kpt #:    27
     total cpu time spent up to now is       11.2 secs

     Computing kpt #:    28
     total cpu time spent up to now is       11.5 secs

     Computing kpt #:    29
     total cpu time spent up to now is       11.8 secs

     Computing kpt #:    30
     total cpu time spent up to now is       12.1 secs

     Computing kpt #:    31
     total cpu time spent up to now is       12.3 secs

     Computing kpt #:    32
     total cpu time spent up to now is       12.6 secs

     Computing kpt #:    33
     total cpu time spent up to now is       13.0 secs

     Computing kpt #:    34
     total cpu time spent up to now is       13.3 secs

     Computing kpt #:    35
     total cpu time spent up to now is       13.6 secs

     Computing kpt #:    36
     total cpu time spent up to now is       14.0 secs

     Computing kpt #:    37
     total cpu time spent up to now is       14.3 secs

     Computing kpt #:    38
     total cpu time spent up to now is       14.6 secs

     Computing kpt #:    39
     total cpu time spent up to now is       15.0 secs

     Computing kpt #:    40
     total cpu time spent up to now is       15.3 secs

     Computing kpt #:    41
     total cpu time spent up to now is       15.5 secs

     Computing kpt #:    42
     total cpu time spent up to now is       15.9 secs

     Computing kpt #:    43
     total cpu time spent up to now is       16.1 secs

     Computing kpt #:    44
     total cpu time spent up to now is       16.4 secs

     Computing kpt #:    45
     total cpu time spent up to now is       16.7 secs

     Computing kpt #:    46
     total cpu time spent up to now is       16.9 secs

     Computing kpt #:    47
     total cpu time spent up to now is       17.2 secs

     Computing kpt #:    48
     total cpu time spent up to now is       17.4 secs

     Computing kpt #:    49
     total cpu time spent up to now is       17.7 secs

     Computing kpt #:    50
     total cpu time spent up to now is       17.9 secs

     ethr =  4.17E-10,  avg # of iterations = 20.3

     total cpu time spent up to now is       17.9 secs

     End of band structure calculation

          k = 0.0000 0.0000 0.0000 (  1291 PWs)   bands (ev):

   -47.0966 -47.0244 -16.2351 -15.4946 -15.4946 -15.3653 -15.3653 -15.3572
     7.4033  11.0787  15.4276  15.9760  15.9760  16.2737  16.8038  16.8038

          k = 0.0357 0.0206 0.0000 (  1277 PWs)   bands (ev):

   -47.0959 -47.0241 -16.2317 -15.5019 -15.4971 -15.3727 -15.3659 -15.3584
     7.4422  11.1174  15.3750  15.8311  16.0125  16.3940  16.7594  16.8386

          k = 0.0714 0.0412 0.0000 (  1281 PWs)   bands (ev):

   -47.0940 -47.0234 -16.2217 -15.5230 -15.5042 -15.3954 -15.3689 -15.3631
     7.5578  11.2315  15.2236  15.5721  16.1218  16.5650  16.6549  16.9420

          k = 0.1071 0.0619 0.0000 (  1289 PWs)   bands (ev):

   -47.0909 -47.0223 -16.2053 -15.5574 -15.5156 -15.4311 -15.3736 -15.3709
     7.7472  11.4147  14.9915  15.2782  16.3026  16.4250  16.8138  17.0428

          k = 0.1429 0.0825 0.0000 (  1287 PWs)   bands (ev):

   -47.0866 -47.0208 -16.1828 -15.6029 -15.5305 -15.4778 -15.3817 -15.3800
     8.0050  11.6546  14.7039  14.9733  16.1966  16.5531  16.8404  16.9356

          k = 0.1786 0.1031 0.0000 (  1285 PWs)   bands (ev):

   -47.0815 -47.0191 -16.1549 -15.6571 -15.5480 -15.5327 -15.3959 -15.3881
     8.3240  11.9299  14.3867  14.6806  15.9597  16.6421  16.7281  16.8709

          k = 0.2143 0.1237 0.0000 (  1287 PWs)   bands (ev):

   -47.0757 -47.0173 -16.1224 -15.7179 -15.5927 -15.5670 -15.4129 -15.3974
     8.6946  12.2050  14.0619  14.4273  15.7480  16.4543  16.5200  17.2519

          k = 0.2500 0.1443 0.0000 (  1285 PWs)   bands (ev):

   -47.0694 -47.0156 -16.0861 -15.7818 -15.6545 -15.5867 -15.4328 -15.4073
     9.1049  12.4252  13.7468  14.2432  15.6002  16.2811  16.3210  17.6914

          k = 0.2857 0.1650 0.0000 (  1284 PWs)   bands (ev):

   -47.0629 -47.0142 -16.0471 -15.8456 -15.7152 -15.6060 -15.4555 -15.4176
     9.5398  12.5338  13.4542  14.1414  15.5616  16.1256  16.1379  18.1826

          k = 0.3214 0.1856 0.0000 (  1290 PWs)   bands (ev):

   -47.0564 -47.0130 -16.0068 -15.9064 -15.7717 -15.6240 -15.4804 -15.4274
     9.9812  12.5204  13.1937  14.0905  15.6620  15.9761  15.9902  18.7155

          k = 0.3571 0.2062 0.0000 (  1294 PWs)   bands (ev):

   -47.0503 -47.0123 -15.9664 -15.9604 -15.8219 -15.6402 -15.5066 -15.4365
    10.4074  12.4293  12.9724  14.0492  15.8393  15.8726  15.8770  19.2579

          k = 0.3929 0.2268 0.0000 (  1302 PWs)   bands (ev):

   -47.0448 -47.0121 -16.0054 -15.9286 -15.8631 -15.6536 -15.5330 -15.4441
    10.7942  12.3085  12.7953  14.0117  15.7304  15.7875  16.1156  19.8156

          k = 0.4286 0.2474 0.0000 (  1304 PWs)   bands (ev):

   -47.0404 -47.0122 -16.0393 -15.8961 -15.8937 -15.6634 -15.5567 -15.4499
    11.1159  12.1864  12.6664  13.9872  15.6513  15.7229  16.3185  20.2951

          k = 0.4643 0.2681 0.0000 (  1300 PWs)   bands (ev):

   -47.0374 -47.0125 -16.0602 -15.9124 -15.8733 -15.6696 -15.5741 -15.4534
    11.3439  12.0835  12.5880  13.9772  15.6032  15.6838  16.4437  20.6001

          k = 0.5000 0.2887 0.0000 (  1304 PWs)   bands (ev):

   -47.0364 -47.0126 -16.0674 -15.9189 -15.8649 -15.6715 -15.5807 -15.4547
    11.4325  12.0376  12.5618  13.9752  15.5871  15.6708  16.4847  20.7025

          k = 0.4792 0.3248 0.0000 (  1294 PWs)   bands (ev):

   -47.0360 -47.0127 -16.0645 -15.9162 -15.8622 -15.6767 -15.5827 -15.4610
    11.4713  12.0787  12.5669  13.9534  15.5605  15.6603  16.4927  20.6926

          k = 0.4583 0.3608 0.0000 (  1292 PWs)   bands (ev):

   -47.0350 -47.0128 -16.0563 -15.9084 -15.8539 -15.6921 -15.5889 -15.4806
    11.5848  12.1983  12.5813  13.8897  15.4869  15.6292  16.5162  20.5899

          k = 0.4375 0.3969 0.0000 (  1288 PWs)   bands (ev):

   -47.0333 -47.0132 -16.0428 -15.8960 -15.8406 -15.7160 -15.5992 -15.5109
    11.7644  12.3852  12.6018  13.7904  15.3833  15.5784  16.5545  20.2614

          k = 0.4167 0.4330 0.0000 (  1280 PWs)   bands (ev):

   -47.0311 -47.0137 -16.0253 -15.8793 -15.8225 -15.7459 -15.6136 -15.5494
    11.9954  12.6193  12.6241  13.6641  15.2730  15.5101  16.6069  20.0136

          k = 0.3958 0.4691 0.0000 (  1288 PWs)   bands (ev):

   -47.0285 -47.0146 -16.0049 -15.8602 -15.8002 -15.7785 -15.6323 -15.5928
    12.2573  12.6426  12.8684  13.5210  15.1799  15.4282  16.6722  19.8634

          k = 0.3750 0.5052 0.0000 (  1296 PWs)   bands (ev):

   -47.0257 -47.0158 -15.9844 -15.8410 -15.8078 -15.7740 -15.6554 -15.6354
    12.5254  12.6534  13.0837  13.3761  15.1240  15.3385  16.7466  19.8216

          k = 0.3542 0.5413 0.0000 (  1306 PWs)   bands (ev):

   -47.0228 -47.0176 -15.9685 -15.8274 -15.8272 -15.7449 -15.6825 -15.6686
    12.6561  12.7745  13.1377  13.3141  15.1183  15.2486  16.8161  19.8895

          k = 0.3333 0.5774 0.0000 (  1302 PWs)   bands (ev):

   -47.0200 -47.0200 -15.9629 -15.8279 -15.8279 -15.7132 -15.7132 -15.6812
    12.6553  12.9850  12.9850  13.3438  15.1669  15.1669  16.8491  20.0256

          k = 0.3148 0.5453 0.0000 (  1300 PWs)   bands (ev):

   -47.0227 -47.0177 -15.9654 -15.8413 -15.8129 -15.7436 -15.6836 -15.6726
    12.6585  12.7952  13.1323  13.3181  15.1080  15.2523  16.8125  19.8655

          k = 0.2963 0.5132 0.0000 (  1304 PWs)   bands (ev):

   -47.0259 -47.0157 -15.9683 -15.8589 -15.7887 -15.7766 -15.6533 -15.6520
    12.5460  12.6731  13.2426  13.2667  15.0680  15.3712  16.6928  19.6379

          k = 0.2778 0.4811 0.0000 (  1296 PWs)   bands (ev):

   -47.0297 -47.0141 -15.9661 -15.8733 -15.8117 -15.7596 -15.6258 -15.6226
    12.2264  12.7061  13.2282  13.3202  15.0519  15.5160  16.4962  19.3853

          k = 0.2593 0.4491 0.0000 (  1284 PWs)   bands (ev):

   -47.0341 -47.0129 -15.9560 -15.8806 -15.8486 -15.7287 -15.5971 -15.5921
    11.8453  12.7635  13.2230  13.3680  15.0637  15.6788  16.2502  19.1219

          k = 0.2407 0.4170 0.0000 (  1284 PWs)   bands (ev):

   -47.0390 -47.0122 -15.9369 -15.8869 -15.8800 -15.6973 -15.5678 -15.5624
    11.4218  12.8493  13.2573  13.3840  15.1063  15.8519  15.9908  18.8554

          k = 0.2222 0.3849 0.0000 (  1280 PWs)   bands (ev):

   -47.0444 -47.0120 -15.9262 -15.9083 -15.8698 -15.6662 -15.5390 -15.5339
    10.9745  12.9663  13.3320  13.3589  15.1819  15.7552  16.0281  18.5909

          k = 0.2037 0.3528 0.0000 (  1276 PWs)   bands (ev):

   -47.0501 -47.0123 -15.9655 -15.8707 -15.8507 -15.6363 -15.5113 -15.5068
    10.5187  13.1156  13.2776  13.4463  15.2916  15.5787  16.2017  18.3328

          k = 0.1852 0.3208 0.0000 (  1274 PWs)   bands (ev):

   -47.0560 -47.0129 -16.0044 -15.8254 -15.8232 -15.6080 -15.4853 -15.4814
    10.0663  13.1281  13.2970  13.5985  15.4350  15.4870  16.3675  18.0844

          k = 0.1667 0.2887 0.0000 (  1276 PWs)   bands (ev):

   -47.0621 -47.0140 -16.0422 -15.7888 -15.7738 -15.5813 -15.4615 -15.4582
     9.6271  12.9126  13.5087  13.7862  15.4873  15.6110  16.5220  17.8484

          k = 0.1481 0.2566 0.0000 (  1292 PWs)   bands (ev):

   -47.0681 -47.0153 -16.0785 -15.7491 -15.7187 -15.5564 -15.4401 -15.4372
     9.2092  12.6490  13.7474  14.0060  15.5681  15.8165  16.6635  17.6267

          k = 0.1296 0.2245 0.0000 (  1284 PWs)   bands (ev):

   -47.0739 -47.0168 -16.1120 -15.7056 -15.6625 -15.5322 -15.4211 -15.4184
     8.8203  12.3612  14.0081  14.2533  15.7103  16.0477  16.7920  17.4204

          k = 0.1111 0.1925 0.0000 (  1290 PWs)   bands (ev):

   -47.0793 -47.0184 -16.1428 -15.6610 -15.6097 -15.5079 -15.4049 -15.4022
     8.4671  12.0710  14.2831  14.5217  15.8933  16.2979  16.9094  17.0603

          k = 0.0926 0.1604 0.0000 (  1286 PWs)   bands (ev):

   -47.0842 -47.0200 -16.1697 -15.6179 -15.5654 -15.4807 -15.3913 -15.3883
     8.1559  11.7969  14.5620  14.8033  16.0979  16.5583  16.7295  17.0192

          k = 0.0741 0.1283 0.0000 (  1294 PWs)   bands (ev):

   -47.0885 -47.0214 -16.1927 -15.5780 -15.5341 -15.4492 -15.3810 -15.3771
     7.8924  11.5535  14.8306  15.0888  16.2999  16.4656  16.8166  16.8828

          k = 0.0556 0.0962 0.0000 (  1292 PWs)   bands (ev):

   -47.0919 -47.0227 -16.2110 -15.5438 -15.5146 -15.4166 -15.3737 -15.3681
     7.6818  11.3524  15.0707  15.3677  16.2402  16.5090  16.7153  17.0567

          k = 0.0370 0.0642 0.0000 (  1283 PWs)   bands (ev):

   -47.0945 -47.0236 -16.2242 -15.5172 -15.5029 -15.3893 -15.3685 -15.3619
     7.5282  11.2024  15.2619  15.6281  16.0941  16.5441  16.6643  16.9179

          k = 0.0185 0.0321 0.0000 (  1277 PWs)   bands (ev):

   -47.0960 -47.0242 -16.2323 -15.5004 -15.4966 -15.3712 -15.3659 -15.3581
     7.4347  11.1099  15.3851  15.8540  16.0055  16.3759  16.7677  16.8320

          k = 0.0000 0.0000 0.0000 (  1291 PWs)   bands (ev):

   -47.0966 -47.0244 -16.2351 -15.4946 -15.4946 -15.3653 -15.3653 -15.3572
     7.4033  11.0787  15.4276  15.9760  15.9760  16.2737  16.8038  16.8038

          k = 0.0000 0.0000 0.0352 (  1273 PWs)   bands (ev):

   -47.0960 -47.0249 -16.2288 -15.4936 -15.4936 -15.3660 -15.3660 -15.3640
     7.4320  11.0647  15.3835  15.9569  15.9569  16.2479  16.7787  16.7787

          k = 0.0000 0.0000 0.0703 (  1273 PWs)   bands (ev):

   -47.0944 -47.0266 -16.2099 -15.4906 -15.4906 -15.3856 -15.3690 -15.3690
     7.5176  11.0199  15.2644  15.9085  15.9085  16.1718  16.7072  16.7072

          k = 0.0000 0.0000 0.1055 (  1279 PWs)   bands (ev):

   -47.0918 -47.0293 -16.1797 -15.4859 -15.4859 -15.4203 -15.3739 -15.3739
     7.6582  10.9365  15.1032  15.8496  15.8496  16.0504  16.6000  16.6000

          k = 0.0000 0.0000 0.1406 (  1279 PWs)   bands (ev):

   -47.0882 -47.0329 -16.1383 -15.4795 -15.4795 -15.4668 -15.3804 -15.3804
     7.8508  10.8045  14.9414  15.7968  15.7968  15.8917  16.4705  16.4705

          k = 0.0000 0.0000 0.1758 (  1279 PWs)   bands (ev):

   -47.0837 -47.0374 -16.0867 -15.5236 -15.4717 -15.4717 -15.3884 -15.3884
     8.0911  10.6158  14.8159  15.7058  15.7608  15.7608  16.3315  16.3315

          k = 0.0000 0.0000 0.2109 (  1267 PWs)   bands (ev):

   -47.0786 -47.0425 -16.0262 -15.5886 -15.4624 -15.4624 -15.3977 -15.3977
     8.3732  10.3689  14.7505  15.5050  15.7477  15.7477  16.1940  16.1940

          k = 0.0000 0.0000 0.2461 (  1255 PWs)   bands (ev):

   -47.0729 -47.0482 -15.9590 -15.6597 -15.4522 -15.4522 -15.4077 -15.4077
     8.6897  10.0712  14.7542  15.3022  15.7604  15.7604  16.0666  16.0666

          k = 0.0000 0.0000 0.2812 (  1250 PWs)   bands (ev):

   -47.0669 -47.0543 -15.8865 -15.7345 -15.4413 -15.4413 -15.4186 -15.4186
     9.0309   9.7374  14.8234  15.1117  15.7999  15.7999  15.9555  15.9555

          k = 0.0000 0.0000 0.3164 (  1256 PWs)   bands (ev):

   -47.0606 -47.0606 -15.8110 -15.8109 -15.4301 -15.4301 -15.4301 -15.4301
     9.3850   9.3850  14.9471  14.9471  15.8655  15.8655  15.8655  15.8655

     Writing output data file pwscf.save

     init_run     :      0.80s CPU      0.78s WALL (       1 calls)
     electrons    :     36.78s CPU     16.97s WALL (       1 calls)

     Called by init_run:
     wfcinit      :      0.00s CPU      0.00s WALL (       1 calls)
     wfcinit:atom :      0.16s CPU      0.06s WALL (      50 calls)
     wfcinit:wfcr :      3.23s CPU      1.54s WALL (      50 calls)
     potinit      :      0.02s CPU      0.03s WALL (       1 calls)

     Called by electrons:
     c_bands      :     36.78s CPU     16.97s WALL (       1 calls)
     v_of_rho     :      0.02s CPU      0.02s WALL (       1 calls)
     v_h          :      0.00s CPU      0.00s WALL (       1 calls)
     v_xc         :      0.02s CPU      0.02s WALL (       1 calls)
     newd         :      0.03s CPU      0.18s WALL (       1 calls)

     Called by c_bands:
     init_us_2    :      0.16s CPU      0.11s WALL (      50 calls)
     cegterg      :     31.39s CPU     14.39s WALL (      73 calls)

     Called by sum_band:

     Called by *egterg:
     h_psi        :     22.22s CPU     10.74s WALL (    1136 calls)
     s_psi        :      0.88s CPU      0.32s WALL (    1136 calls)
     g_psi        :      0.25s CPU      0.13s WALL (    1013 calls)
     cdiaghg      :      6.47s CPU      2.98s WALL (    1063 calls)
     cegterg:over :      1.94s CPU      0.66s WALL (    1013 calls)
     cegterg:upda :      1.62s CPU      0.61s WALL (    1013 calls)
     cegterg:last :      0.53s CPU      0.15s WALL (     174 calls)

     Called by h_psi:
     h_psi:pot    :     21.92s CPU     10.64s WALL (    1136 calls)
     h_psi:calbec :      0.81s CPU      0.37s WALL (    1136 calls)
     vloc_psi     :     19.75s CPU      9.74s WALL (    1136 calls)
     add_vuspsi   :      1.36s CPU      0.49s WALL (    1136 calls)

     General routines
     calbec       :      0.80s CPU      0.35s WALL (    1136 calls)
     fft          :      0.00s CPU      0.01s WALL (      13 calls)
     ffts         :      0.00s CPU      0.00s WALL (       1 calls)
     fftw         :     17.22s CPU      8.32s WALL (   18836 calls)
     interpolate  :      0.00s CPU      0.00s WALL (       1 calls)
     davcio       :      0.00s CPU      0.01s WALL (      50 calls)

     Parallel routines
     fft_scatter  :      1.52s CPU      0.74s WALL (   18850 calls)

     PWSCF        :    38.00s CPU        18.18s WALL


   This run was terminated on:  22:18:22  25Feb2021            

=------------------------------------------------------------------------------=
   JOB DONE.
=------------------------------------------------------------------------------=
