
     Program PWSCF v.6.0 (svn rev. 13079) starts on 25Feb2021 at 11:49:57 

     This program is part of the open-source Quantum ESPRESSO suite
     for quantum simulation of materials; please cite
         "P. Giannozzi et al., J. Phys.:Condens. Matter 21 395502 (2009);
          URL http://www.quantum-espresso.org", 
     in publications or presentations arising from this work. More details at
     http://www.quantum-espresso.org/quote

     Parallel version (MPI), running on     1 processors
     Reading input from espresso.pwi
Warning: card &IONS ignored
Warning: card / ignored
Warning: card &CELL ignored
Warning: card / ignored

     Current dimensions of program PWSCF are:
     Max number of different atomic species (ntypx) = 10
     Max number of k-points (npk) =  40000
     Max angular momentum in pseudopotentials (lmaxx) =  3
     Message from routine input:
     WARNING: "startingwfc" set to atomic+random may spoil restart

     Atomic positions and unit cell read from directory:
     ./pwscf.save/


     IMPORTANT: XC functional enforced from input :
     Exchange-correlation      = PBE ( 1  4  3  4 0 0)
     Any further DFT definition will be discarded
     Please, verify this is what you really want


     Subspace diagonalization in iterative solution of the eigenvalue problem:
     a serial algorithm will be used


     G-vector sticks info
     --------------------
     sticks:   dense  smooth     PW     G-vecs:    dense   smooth      PW
     Sum         733     583    169                12939     9257    1471



     bravais-lattice index     =            0
     lattice parameter (alat)  =       7.2571  a.u.
     unit-cell volume          =     270.2564 (a.u.)^3
     number of atoms/cell      =            2
     number of atomic types    =            1
     number of electrons       =         8.00
     number of Kohn-Sham states=            8
     kinetic-energy cutoff     =      40.0000  Ry
     charge density cutoff     =     200.0000  Ry
     Exchange-correlation      = PBE ( 1  4  3  4 0 0)

     celldm(1)=   7.257109  celldm(2)=   0.000000  celldm(3)=   0.000000
     celldm(4)=   0.000000  celldm(5)=   0.000000  celldm(6)=   0.000000

     crystal axes: (cart. coord. in units of alat)
               a(1) = (   0.000000   0.707107   0.707107 )  
               a(2) = (   0.707107   0.000000   0.707107 )  
               a(3) = (   0.707107   0.707107   0.000000 )  

     reciprocal axes: (cart. coord. in units 2 pi/alat)
               b(1) = ( -0.707107  0.707107  0.707107 )  
               b(2) = (  0.707107 -0.707107  0.707107 )  
               b(3) = (  0.707107  0.707107 -0.707107 )  


     PseudoPot. # 1 for Si read from file:
     /home/inukai/tango/tests/1element/qe_fit_v2_Si/../pseudo/si_pbe_v1.uspp.F.UPF
     MD5 check sum: a056efeee980c13900f22a371efd63c1
     Pseudo is Ultrasoft + core correction, Zval =  4.0
     Generated by new atomic code, or converted to UPF format
     Using radial grid of  899 points,  6 beta functions with: 
                l(1) =   0
                l(2) =   0
                l(3) =   1
                l(4) =   1
                l(5) =   2
                l(6) =   2
     Q(r) pseudized with  8 coefficients,  rinner =    0.900   0.900   0.900
                                                       0.900   0.900

     atomic species   valence    mass     pseudopotential
        Si             4.00    28.08500     Si( 1.00)

     48 Sym. Ops., with inversion, found (24 have fractional translation)


                                    s                        frac. trans.

      isym =  1     identity                                     

 cryst.   s( 1) = (     1          0          0      )
                  (     0          1          0      )
                  (     0          0          1      )

 cart.    s( 1) = (  1.0000000  0.0000000  0.0000000 )
                  (  0.0000000  1.0000000  0.0000000 )
                  (  0.0000000  0.0000000  1.0000000 )


      isym =  2     180 deg rotation - cart. axis [0,0,1]        

 cryst.   s( 2) = (     0          1         -1      )
                  (     1          0         -1      )
                  (     0          0         -1      )

 cart.    s( 2) = ( -1.0000000  0.0000000  0.0000000 )
                  (  0.0000000 -1.0000000  0.0000000 )
                  (  0.0000000  0.0000000  1.0000000 )


      isym =  3     180 deg rotation - cart. axis [0,1,0]        

 cryst.   s( 3) = (     0         -1          1      )
                  (     0         -1          0      )
                  (     1         -1          0      )

 cart.    s( 3) = ( -1.0000000  0.0000000  0.0000000 )
                  (  0.0000000  1.0000000  0.0000000 )
                  (  0.0000000  0.0000000 -1.0000000 )


      isym =  4     180 deg rotation - cart. axis [1,0,0]        

 cryst.   s( 4) = (    -1          0          0      )
                  (    -1          0          1      )
                  (    -1          1          0      )

 cart.    s( 4) = (  1.0000000  0.0000000  0.0000000 )
                  (  0.0000000 -1.0000000  0.0000000 )
                  (  0.0000000  0.0000000 -1.0000000 )


      isym =  5     180 deg rotation - cart. axis [1,1,0]        

 cryst.   s( 5) = (    -1          0          1      )    f =( -0.2500000 )
                  (     0         -1          1      )       ( -0.2500000 )
                  (     0          0          1      )       ( -0.2500000 )

 cart.    s( 5) = (  0.0000000  1.0000000  0.0000000 )    f =( -0.3535534 )
                  (  1.0000000  0.0000000  0.0000000 )       ( -0.3535534 )
                  (  0.0000000  0.0000000 -1.0000000 )       ( -0.3535534 )


      isym =  6     180 deg rotation - cart. axis [1,-1,0]       

 cryst.   s( 6) = (     0         -1          0      )    f =( -0.2500000 )
                  (    -1          0          0      )       ( -0.2500000 )
                  (     0          0         -1      )       ( -0.2500000 )

 cart.    s( 6) = (  0.0000000 -1.0000000  0.0000000 )    f =( -0.3535534 )
                  ( -1.0000000  0.0000000  0.0000000 )       ( -0.3535534 )
                  (  0.0000000  0.0000000 -1.0000000 )       ( -0.3535534 )


      isym =  7      90 deg rotation - cart. axis [0,0,-1]       

 cryst.   s( 7) = (     0          1          0      )    f =( -0.2500000 )
                  (     0          1         -1      )       ( -0.2500000 )
                  (    -1          1          0      )       ( -0.2500000 )

 cart.    s( 7) = (  0.0000000  1.0000000  0.0000000 )    f =( -0.3535534 )
                  ( -1.0000000  0.0000000  0.0000000 )       ( -0.3535534 )
                  (  0.0000000  0.0000000  1.0000000 )       ( -0.3535534 )


      isym =  8      90 deg rotation - cart. axis [0,0,1]        

 cryst.   s( 8) = (     1          0         -1      )    f =( -0.2500000 )
                  (     1          0          0      )       ( -0.2500000 )
                  (     1         -1          0      )       ( -0.2500000 )

 cart.    s( 8) = (  0.0000000 -1.0000000  0.0000000 )    f =( -0.3535534 )
                  (  1.0000000  0.0000000  0.0000000 )       ( -0.3535534 )
                  (  0.0000000  0.0000000  1.0000000 )       ( -0.3535534 )


      isym =  9     180 deg rotation - cart. axis [1,0,1]        

 cryst.   s( 9) = (    -1          1          0      )    f =( -0.2500000 )
                  (     0          1          0      )       ( -0.2500000 )
                  (     0          1         -1      )       ( -0.2500000 )

 cart.    s( 9) = (  0.0000000  0.0000000  1.0000000 )    f =( -0.3535534 )
                  (  0.0000000 -1.0000000  0.0000000 )       ( -0.3535534 )
                  (  1.0000000  0.0000000  0.0000000 )       ( -0.3535534 )


      isym = 10     180 deg rotation - cart. axis [-1,0,1]       

 cryst.   s(10) = (     0          0         -1      )    f =( -0.2500000 )
                  (     0         -1          0      )       ( -0.2500000 )
                  (    -1          0          0      )       ( -0.2500000 )

 cart.    s(10) = (  0.0000000  0.0000000 -1.0000000 )    f =( -0.3535534 )
                  (  0.0000000 -1.0000000  0.0000000 )       ( -0.3535534 )
                  ( -1.0000000  0.0000000  0.0000000 )       ( -0.3535534 )


      isym = 11      90 deg rotation - cart. axis [0,1,0]        

 cryst.   s(11) = (     0          0          1      )    f =( -0.2500000 )
                  (    -1          0          1      )       ( -0.2500000 )
                  (     0         -1          1      )       ( -0.2500000 )

 cart.    s(11) = (  0.0000000  0.0000000  1.0000000 )    f =( -0.3535534 )
                  (  0.0000000  1.0000000  0.0000000 )       ( -0.3535534 )
                  ( -1.0000000  0.0000000  0.0000000 )       ( -0.3535534 )


      isym = 12      90 deg rotation - cart. axis [0,-1,0]       

 cryst.   s(12) = (     1         -1          0      )    f =( -0.2500000 )
                  (     1          0         -1      )       ( -0.2500000 )
                  (     1          0          0      )       ( -0.2500000 )

 cart.    s(12) = (  0.0000000  0.0000000 -1.0000000 )    f =( -0.3535534 )
                  (  0.0000000  1.0000000  0.0000000 )       ( -0.3535534 )
                  (  1.0000000  0.0000000  0.0000000 )       ( -0.3535534 )


      isym = 13     180 deg rotation - cart. axis [0,1,1]        

 cryst.   s(13) = (     1          0          0      )    f =( -0.2500000 )
                  (     1         -1          0      )       ( -0.2500000 )
                  (     1          0         -1      )       ( -0.2500000 )

 cart.    s(13) = ( -1.0000000  0.0000000  0.0000000 )    f =( -0.3535534 )
                  (  0.0000000  0.0000000  1.0000000 )       ( -0.3535534 )
                  (  0.0000000  1.0000000  0.0000000 )       ( -0.3535534 )


      isym = 14     180 deg rotation - cart. axis [0,1,-1]       

 cryst.   s(14) = (    -1          0          0      )    f =( -0.2500000 )
                  (     0          0         -1      )       ( -0.2500000 )
                  (     0         -1          0      )       ( -0.2500000 )

 cart.    s(14) = ( -1.0000000  0.0000000  0.0000000 )    f =( -0.3535534 )
                  (  0.0000000  0.0000000 -1.0000000 )       ( -0.3535534 )
                  (  0.0000000 -1.0000000  0.0000000 )       ( -0.3535534 )


      isym = 15      90 deg rotation - cart. axis [-1,0,0]       

 cryst.   s(15) = (     0         -1          1      )    f =( -0.2500000 )
                  (     0          0          1      )       ( -0.2500000 )
                  (    -1          0          1      )       ( -0.2500000 )

 cart.    s(15) = (  1.0000000  0.0000000  0.0000000 )    f =( -0.3535534 )
                  (  0.0000000  0.0000000  1.0000000 )       ( -0.3535534 )
                  (  0.0000000 -1.0000000  0.0000000 )       ( -0.3535534 )


      isym = 16      90 deg rotation - cart. axis [1,0,0]        

 cryst.   s(16) = (     0          1         -1      )    f =( -0.2500000 )
                  (    -1          1          0      )       ( -0.2500000 )
                  (     0          1          0      )       ( -0.2500000 )

 cart.    s(16) = (  1.0000000  0.0000000  0.0000000 )    f =( -0.3535534 )
                  (  0.0000000  0.0000000 -1.0000000 )       ( -0.3535534 )
                  (  0.0000000  1.0000000  0.0000000 )       ( -0.3535534 )


      isym = 17     120 deg rotation - cart. axis [-1,-1,-1]     

 cryst.   s(17) = (     0          0          1      )
                  (     1          0          0      )
                  (     0          1          0      )

 cart.    s(17) = (  0.0000000  1.0000000  0.0000000 )
                  (  0.0000000  0.0000000  1.0000000 )
                  (  1.0000000  0.0000000  0.0000000 )


      isym = 18     120 deg rotation - cart. axis [-1,1,1]       

 cryst.   s(18) = (     1         -1          0      )
                  (     0         -1          1      )
                  (     0         -1          0      )

 cart.    s(18) = (  0.0000000 -1.0000000  0.0000000 )
                  (  0.0000000  0.0000000  1.0000000 )
                  ( -1.0000000  0.0000000  0.0000000 )


      isym = 19     120 deg rotation - cart. axis [1,1,-1]       

 cryst.   s(19) = (    -1          1          0      )
                  (    -1          0          0      )
                  (    -1          0          1      )

 cart.    s(19) = (  0.0000000  1.0000000  0.0000000 )
                  (  0.0000000  0.0000000 -1.0000000 )
                  ( -1.0000000  0.0000000  0.0000000 )


      isym = 20     120 deg rotation - cart. axis [1,-1,1]       

 cryst.   s(20) = (     0          0         -1      )
                  (     0          1         -1      )
                  (     1          0         -1      )

 cart.    s(20) = (  0.0000000 -1.0000000  0.0000000 )
                  (  0.0000000  0.0000000 -1.0000000 )
                  (  1.0000000  0.0000000  0.0000000 )


      isym = 21     120 deg rotation - cart. axis [1,1,1]        

 cryst.   s(21) = (     0          1          0      )
                  (     0          0          1      )
                  (     1          0          0      )

 cart.    s(21) = (  0.0000000  0.0000000  1.0000000 )
                  (  1.0000000  0.0000000  0.0000000 )
                  (  0.0000000  1.0000000  0.0000000 )


      isym = 22     120 deg rotation - cart. axis [-1,1,-1]      

 cryst.   s(22) = (    -1          0          1      )
                  (    -1          1          0      )
                  (    -1          0          0      )

 cart.    s(22) = (  0.0000000  0.0000000  1.0000000 )
                  ( -1.0000000  0.0000000  0.0000000 )
                  (  0.0000000 -1.0000000  0.0000000 )


      isym = 23     120 deg rotation - cart. axis [1,-1,-1]      

 cryst.   s(23) = (     1          0         -1      )
                  (     0          0         -1      )
                  (     0          1         -1      )

 cart.    s(23) = (  0.0000000  0.0000000 -1.0000000 )
                  ( -1.0000000  0.0000000  0.0000000 )
                  (  0.0000000  1.0000000  0.0000000 )


      isym = 24     120 deg rotation - cart. axis [-1,-1,1]      

 cryst.   s(24) = (     0         -1          0      )
                  (     1         -1          0      )
                  (     0         -1          1      )

 cart.    s(24) = (  0.0000000  0.0000000 -1.0000000 )
                  (  1.0000000  0.0000000  0.0000000 )
                  (  0.0000000 -1.0000000  0.0000000 )


      isym = 25     inversion                                    

 cryst.   s(25) = (    -1          0          0      )    f =( -0.2500000 )
                  (     0         -1          0      )       ( -0.2500000 )
                  (     0          0         -1      )       ( -0.2500000 )

 cart.    s(25) = ( -1.0000000  0.0000000  0.0000000 )    f =( -0.3535534 )
                  (  0.0000000 -1.0000000  0.0000000 )       ( -0.3535534 )
                  (  0.0000000  0.0000000 -1.0000000 )       ( -0.3535534 )


      isym = 26     inv. 180 deg rotation - cart. axis [0,0,1]   

 cryst.   s(26) = (     0         -1          1      )    f =( -0.2500000 )
                  (    -1          0          1      )       ( -0.2500000 )
                  (     0          0          1      )       ( -0.2500000 )

 cart.    s(26) = (  1.0000000  0.0000000  0.0000000 )    f =( -0.3535534 )
                  (  0.0000000  1.0000000  0.0000000 )       ( -0.3535534 )
                  (  0.0000000  0.0000000 -1.0000000 )       ( -0.3535534 )


      isym = 27     inv. 180 deg rotation - cart. axis [0,1,0]   

 cryst.   s(27) = (     0          1         -1      )    f =( -0.2500000 )
                  (     0          1          0      )       ( -0.2500000 )
                  (    -1          1          0      )       ( -0.2500000 )

 cart.    s(27) = (  1.0000000  0.0000000  0.0000000 )    f =( -0.3535534 )
                  (  0.0000000 -1.0000000  0.0000000 )       ( -0.3535534 )
                  (  0.0000000  0.0000000  1.0000000 )       ( -0.3535534 )


      isym = 28     inv. 180 deg rotation - cart. axis [1,0,0]   

 cryst.   s(28) = (     1          0          0      )    f =( -0.2500000 )
                  (     1          0         -1      )       ( -0.2500000 )
                  (     1         -1          0      )       ( -0.2500000 )

 cart.    s(28) = ( -1.0000000  0.0000000  0.0000000 )    f =( -0.3535534 )
                  (  0.0000000  1.0000000  0.0000000 )       ( -0.3535534 )
                  (  0.0000000  0.0000000  1.0000000 )       ( -0.3535534 )


      isym = 29     inv. 180 deg rotation - cart. axis [1,1,0]   

 cryst.   s(29) = (     1          0         -1      )
                  (     0          1         -1      )
                  (     0          0         -1      )

 cart.    s(29) = (  0.0000000 -1.0000000  0.0000000 )
                  ( -1.0000000  0.0000000  0.0000000 )
                  (  0.0000000  0.0000000  1.0000000 )


      isym = 30     inv. 180 deg rotation - cart. axis [1,-1,0]  

 cryst.   s(30) = (     0          1          0      )
                  (     1          0          0      )
                  (     0          0          1      )

 cart.    s(30) = (  0.0000000  1.0000000  0.0000000 )
                  (  1.0000000  0.0000000  0.0000000 )
                  (  0.0000000  0.0000000  1.0000000 )


      isym = 31     inv.  90 deg rotation - cart. axis [0,0,-1]  

 cryst.   s(31) = (     0         -1          0      )
                  (     0         -1          1      )
                  (     1         -1          0      )

 cart.    s(31) = (  0.0000000 -1.0000000  0.0000000 )
                  (  1.0000000  0.0000000  0.0000000 )
                  (  0.0000000  0.0000000 -1.0000000 )


      isym = 32     inv.  90 deg rotation - cart. axis [0,0,1]   

 cryst.   s(32) = (    -1          0          1      )
                  (    -1          0          0      )
                  (    -1          1          0      )

 cart.    s(32) = (  0.0000000  1.0000000  0.0000000 )
                  ( -1.0000000  0.0000000  0.0000000 )
                  (  0.0000000  0.0000000 -1.0000000 )


      isym = 33     inv. 180 deg rotation - cart. axis [1,0,1]   

 cryst.   s(33) = (     1         -1          0      )
                  (     0         -1          0      )
                  (     0         -1          1      )

 cart.    s(33) = (  0.0000000  0.0000000 -1.0000000 )
                  (  0.0000000  1.0000000  0.0000000 )
                  ( -1.0000000  0.0000000  0.0000000 )


      isym = 34     inv. 180 deg rotation - cart. axis [-1,0,1]  

 cryst.   s(34) = (     0          0          1      )
                  (     0          1          0      )
                  (     1          0          0      )

 cart.    s(34) = (  0.0000000  0.0000000  1.0000000 )
                  (  0.0000000  1.0000000  0.0000000 )
                  (  1.0000000  0.0000000  0.0000000 )


      isym = 35     inv.  90 deg rotation - cart. axis [0,1,0]   

 cryst.   s(35) = (     0          0         -1      )
                  (     1          0         -1      )
                  (     0          1         -1      )

 cart.    s(35) = (  0.0000000  0.0000000 -1.0000000 )
                  (  0.0000000 -1.0000000  0.0000000 )
                  (  1.0000000  0.0000000  0.0000000 )


      isym = 36     inv.  90 deg rotation - cart. axis [0,-1,0]  

 cryst.   s(36) = (    -1          1          0      )
                  (    -1          0          1      )
                  (    -1          0          0      )

 cart.    s(36) = (  0.0000000  0.0000000  1.0000000 )
                  (  0.0000000 -1.0000000  0.0000000 )
                  ( -1.0000000  0.0000000  0.0000000 )


      isym = 37     inv. 180 deg rotation - cart. axis [0,1,1]   

 cryst.   s(37) = (    -1          0          0      )
                  (    -1          1          0      )
                  (    -1          0          1      )

 cart.    s(37) = (  1.0000000  0.0000000  0.0000000 )
                  (  0.0000000  0.0000000 -1.0000000 )
                  (  0.0000000 -1.0000000  0.0000000 )


      isym = 38     inv. 180 deg rotation - cart. axis [0,1,-1]  

 cryst.   s(38) = (     1          0          0      )
                  (     0          0          1      )
                  (     0          1          0      )

 cart.    s(38) = (  1.0000000  0.0000000  0.0000000 )
                  (  0.0000000  0.0000000  1.0000000 )
                  (  0.0000000  1.0000000  0.0000000 )


      isym = 39     inv.  90 deg rotation - cart. axis [-1,0,0]  

 cryst.   s(39) = (     0          1         -1      )
                  (     0          0         -1      )
                  (     1          0         -1      )

 cart.    s(39) = ( -1.0000000  0.0000000  0.0000000 )
                  (  0.0000000  0.0000000 -1.0000000 )
                  (  0.0000000  1.0000000  0.0000000 )


      isym = 40     inv.  90 deg rotation - cart. axis [1,0,0]   

 cryst.   s(40) = (     0         -1          1      )
                  (     1         -1          0      )
                  (     0         -1          0      )

 cart.    s(40) = ( -1.0000000  0.0000000  0.0000000 )
                  (  0.0000000  0.0000000  1.0000000 )
                  (  0.0000000 -1.0000000  0.0000000 )


      isym = 41     inv. 120 deg rotation - cart. axis [-1,-1,-1]

 cryst.   s(41) = (     0          0         -1      )    f =( -0.2500000 )
                  (    -1          0          0      )       ( -0.2500000 )
                  (     0         -1          0      )       ( -0.2500000 )

 cart.    s(41) = (  0.0000000 -1.0000000  0.0000000 )    f =( -0.3535534 )
                  (  0.0000000  0.0000000 -1.0000000 )       ( -0.3535534 )
                  ( -1.0000000  0.0000000  0.0000000 )       ( -0.3535534 )


      isym = 42     inv. 120 deg rotation - cart. axis [-1,1,1]  

 cryst.   s(42) = (    -1          1          0      )    f =( -0.2500000 )
                  (     0          1         -1      )       ( -0.2500000 )
                  (     0          1          0      )       ( -0.2500000 )

 cart.    s(42) = (  0.0000000  1.0000000  0.0000000 )    f =( -0.3535534 )
                  (  0.0000000  0.0000000 -1.0000000 )       ( -0.3535534 )
                  (  1.0000000  0.0000000  0.0000000 )       ( -0.3535534 )


      isym = 43     inv. 120 deg rotation - cart. axis [1,1,-1]  

 cryst.   s(43) = (     1         -1          0      )    f =( -0.2500000 )
                  (     1          0          0      )       ( -0.2500000 )
                  (     1          0         -1      )       ( -0.2500000 )

 cart.    s(43) = (  0.0000000 -1.0000000  0.0000000 )    f =( -0.3535534 )
                  (  0.0000000  0.0000000  1.0000000 )       ( -0.3535534 )
                  (  1.0000000  0.0000000  0.0000000 )       ( -0.3535534 )


      isym = 44     inv. 120 deg rotation - cart. axis [1,-1,1]  

 cryst.   s(44) = (     0          0          1      )    f =( -0.2500000 )
                  (     0         -1          1      )       ( -0.2500000 )
                  (    -1          0          1      )       ( -0.2500000 )

 cart.    s(44) = (  0.0000000  1.0000000  0.0000000 )    f =( -0.3535534 )
                  (  0.0000000  0.0000000  1.0000000 )       ( -0.3535534 )
                  ( -1.0000000  0.0000000  0.0000000 )       ( -0.3535534 )


      isym = 45     inv. 120 deg rotation - cart. axis [1,1,1]   

 cryst.   s(45) = (     0         -1          0      )    f =( -0.2500000 )
                  (     0          0         -1      )       ( -0.2500000 )
                  (    -1          0          0      )       ( -0.2500000 )

 cart.    s(45) = (  0.0000000  0.0000000 -1.0000000 )    f =( -0.3535534 )
                  ( -1.0000000  0.0000000  0.0000000 )       ( -0.3535534 )
                  (  0.0000000 -1.0000000  0.0000000 )       ( -0.3535534 )


      isym = 46     inv. 120 deg rotation - cart. axis [-1,1,-1] 

 cryst.   s(46) = (     1          0         -1      )    f =( -0.2500000 )
                  (     1         -1          0      )       ( -0.2500000 )
                  (     1          0          0      )       ( -0.2500000 )

 cart.    s(46) = (  0.0000000  0.0000000 -1.0000000 )    f =( -0.3535534 )
                  (  1.0000000  0.0000000  0.0000000 )       ( -0.3535534 )
                  (  0.0000000  1.0000000  0.0000000 )       ( -0.3535534 )


      isym = 47     inv. 120 deg rotation - cart. axis [1,-1,-1] 

 cryst.   s(47) = (    -1          0          1      )    f =( -0.2500000 )
                  (     0          0          1      )       ( -0.2500000 )
                  (     0         -1          1      )       ( -0.2500000 )

 cart.    s(47) = (  0.0000000  0.0000000  1.0000000 )    f =( -0.3535534 )
                  (  1.0000000  0.0000000  0.0000000 )       ( -0.3535534 )
                  (  0.0000000 -1.0000000  0.0000000 )       ( -0.3535534 )


      isym = 48     inv. 120 deg rotation - cart. axis [-1,-1,1] 

 cryst.   s(48) = (     0          1          0      )    f =( -0.2500000 )
                  (    -1          1          0      )       ( -0.2500000 )
                  (     0          1         -1      )       ( -0.2500000 )

 cart.    s(48) = (  0.0000000  0.0000000  1.0000000 )    f =( -0.3535534 )
                  ( -1.0000000  0.0000000  0.0000000 )       ( -0.3535534 )
                  (  0.0000000  1.0000000  0.0000000 )       ( -0.3535534 )


   Cartesian axes

     site n.     atom                  positions (alat units)
         1           Si  tau(   1) = (   0.0000000   0.0000000   0.0000000  )
         2           Si  tau(   2) = (   0.3535534   0.3535534   0.3535534  )

   Crystallographic axes

     site n.     atom                  positions (cryst. coord.)
         1           Si  tau(   1) = (  0.0000000  0.0000000  0.0000000  )
         2           Si  tau(   2) = (  0.2500000  0.2500000  0.2500000  )

     number of k points=    50  gaussian smearing, width (Ry)=  0.0010
                       cart. coord. in units 2pi/alat
        k(    1) = (   0.3535534   0.3535534   0.3535534), wk =   0.0400000
        k(    2) = (   0.3240906   0.3240906   0.3240906), wk =   0.0400000
        k(    3) = (   0.2946278   0.2946278   0.2946278), wk =   0.0400000
        k(    4) = (   0.2651650   0.2651650   0.2651650), wk =   0.0400000
        k(    5) = (   0.2357023   0.2357023   0.2357023), wk =   0.0400000
        k(    6) = (   0.2062395   0.2062395   0.2062395), wk =   0.0400000
        k(    7) = (   0.1767767   0.1767767   0.1767767), wk =   0.0400000
        k(    8) = (   0.1473139   0.1473139   0.1473139), wk =   0.0400000
        k(    9) = (   0.1178511   0.1178511   0.1178511), wk =   0.0400000
        k(   10) = (   0.0883883   0.0883883   0.0883883), wk =   0.0400000
        k(   11) = (   0.0589256   0.0589256   0.0589256), wk =   0.0400000
        k(   12) = (   0.0294628   0.0294628   0.0294628), wk =   0.0400000
        k(   13) = (   0.0000000   0.0000000   0.0000000), wk =   0.0400000
        k(   14) = (   0.0000000   0.0471405   0.0000000), wk =   0.0400000
        k(   15) = (   0.0000000   0.0942809   0.0000000), wk =   0.0400000
        k(   16) = (   0.0000000   0.1414214   0.0000000), wk =   0.0400000
        k(   17) = (   0.0000000   0.1885618   0.0000000), wk =   0.0400000
        k(   18) = (   0.0000000   0.2357023   0.0000000), wk =   0.0400000
        k(   19) = (   0.0000000   0.2828427   0.0000000), wk =   0.0400000
        k(   20) = (   0.0000000   0.3299832   0.0000000), wk =   0.0400000
        k(   21) = (   0.0000000   0.3771236   0.0000000), wk =   0.0400000
        k(   22) = (   0.0000000   0.4242641   0.0000000), wk =   0.0400000
        k(   23) = (   0.0000000   0.4714045   0.0000000), wk =   0.0400000
        k(   24) = (   0.0000000   0.5185450   0.0000000), wk =   0.0400000
        k(   25) = (   0.0000000   0.5656854   0.0000000), wk =   0.0400000
        k(   26) = (   0.0000000   0.6128259   0.0000000), wk =   0.0400000
        k(   27) = (   0.0000000   0.6599663   0.0000000), wk =   0.0400000
        k(   28) = (   0.0000000   0.7071068   0.0000000), wk =   0.0400000
        k(   29) = (   0.0353553   0.7071068   0.0353553), wk =   0.0400000
        k(   30) = (   0.0707107   0.7071068   0.0707107), wk =   0.0400000
        k(   31) = (   0.1060660   0.7071068   0.1060660), wk =   0.0400000
        k(   32) = (   0.1414214   0.7071068   0.1414214), wk =   0.0400000
        k(   33) = (   0.1767767   0.7071068   0.1767767), wk =   0.0400000
        k(   34) = (   0.1663781   0.6655123   0.1663781), wk =   0.0400000
        k(   35) = (   0.1559794   0.6239177   0.1559794), wk =   0.0400000
        k(   36) = (   0.1455808   0.5823232   0.1455808), wk =   0.0400000
        k(   37) = (   0.1351822   0.5407287   0.1351822), wk =   0.0400000
        k(   38) = (   0.1247835   0.4991342   0.1247835), wk =   0.0400000
        k(   39) = (   0.1143849   0.4575397   0.1143849), wk =   0.0400000
        k(   40) = (   0.1039863   0.4159452   0.1039863), wk =   0.0400000
        k(   41) = (   0.0935877   0.3743506   0.0935877), wk =   0.0400000
        k(   42) = (   0.0831890   0.3327561   0.0831890), wk =   0.0400000
        k(   43) = (   0.0727904   0.2911616   0.0727904), wk =   0.0400000
        k(   44) = (   0.0623918   0.2495671   0.0623918), wk =   0.0400000
        k(   45) = (   0.0519931   0.2079726   0.0519931), wk =   0.0400000
        k(   46) = (   0.0415945   0.1663781   0.0415945), wk =   0.0400000
        k(   47) = (   0.0311959   0.1247835   0.0311959), wk =   0.0400000
        k(   48) = (   0.0207973   0.0831890   0.0207973), wk =   0.0400000
        k(   49) = (   0.0103986   0.0415945   0.0103986), wk =   0.0400000
        k(   50) = (   0.0000000   0.0000000   0.0000000), wk =   0.0400000

                       cryst. coord.
        k(    1) = (   0.5000000   0.5000000   0.5000000), wk =   0.0400000
        k(    2) = (   0.4583333   0.4583333   0.4583333), wk =   0.0400000
        k(    3) = (   0.4166667   0.4166667   0.4166667), wk =   0.0400000
        k(    4) = (   0.3750000   0.3750000   0.3750000), wk =   0.0400000
        k(    5) = (   0.3333333   0.3333333   0.3333333), wk =   0.0400000
        k(    6) = (   0.2916667   0.2916667   0.2916667), wk =   0.0400000
        k(    7) = (   0.2500000   0.2500000   0.2500000), wk =   0.0400000
        k(    8) = (   0.2083333   0.2083333   0.2083333), wk =   0.0400000
        k(    9) = (   0.1666667   0.1666667   0.1666667), wk =   0.0400000
        k(   10) = (   0.1250000   0.1250000   0.1250000), wk =   0.0400000
        k(   11) = (   0.0833333   0.0833333   0.0833333), wk =   0.0400000
        k(   12) = (   0.0416667   0.0416667   0.0416667), wk =   0.0400000
        k(   13) = (   0.0000000   0.0000000   0.0000000), wk =   0.0400000
        k(   14) = (   0.0333333   0.0000000   0.0333333), wk =   0.0400000
        k(   15) = (   0.0666667   0.0000000   0.0666667), wk =   0.0400000
        k(   16) = (   0.1000000   0.0000000   0.1000000), wk =   0.0400000
        k(   17) = (   0.1333333   0.0000000   0.1333333), wk =   0.0400000
        k(   18) = (   0.1666667   0.0000000   0.1666667), wk =   0.0400000
        k(   19) = (   0.2000000   0.0000000   0.2000000), wk =   0.0400000
        k(   20) = (   0.2333333   0.0000000   0.2333333), wk =   0.0400000
        k(   21) = (   0.2666667   0.0000000   0.2666667), wk =   0.0400000
        k(   22) = (   0.3000000   0.0000000   0.3000000), wk =   0.0400000
        k(   23) = (   0.3333333   0.0000000   0.3333333), wk =   0.0400000
        k(   24) = (   0.3666667   0.0000000   0.3666667), wk =   0.0400000
        k(   25) = (   0.4000000   0.0000000   0.4000000), wk =   0.0400000
        k(   26) = (   0.4333333   0.0000000   0.4333333), wk =   0.0400000
        k(   27) = (   0.4666667   0.0000000   0.4666667), wk =   0.0400000
        k(   28) = (   0.5000000   0.0000000   0.5000000), wk =   0.0400000
        k(   29) = (   0.5250000   0.0500000   0.5250000), wk =   0.0400000
        k(   30) = (   0.5500000   0.1000000   0.5500000), wk =   0.0400000
        k(   31) = (   0.5750000   0.1500000   0.5750000), wk =   0.0400000
        k(   32) = (   0.6000000   0.2000000   0.6000000), wk =   0.0400000
        k(   33) = (   0.6250000   0.2500000   0.6250000), wk =   0.0400000
        k(   34) = (   0.5882353   0.2352941   0.5882353), wk =   0.0400000
        k(   35) = (   0.5514706   0.2205882   0.5514706), wk =   0.0400000
        k(   36) = (   0.5147059   0.2058824   0.5147059), wk =   0.0400000
        k(   37) = (   0.4779412   0.1911765   0.4779412), wk =   0.0400000
        k(   38) = (   0.4411765   0.1764706   0.4411765), wk =   0.0400000
        k(   39) = (   0.4044118   0.1617647   0.4044118), wk =   0.0400000
        k(   40) = (   0.3676471   0.1470588   0.3676471), wk =   0.0400000
        k(   41) = (   0.3308824   0.1323529   0.3308824), wk =   0.0400000
        k(   42) = (   0.2941176   0.1176471   0.2941176), wk =   0.0400000
        k(   43) = (   0.2573529   0.1029412   0.2573529), wk =   0.0400000
        k(   44) = (   0.2205882   0.0882353   0.2205882), wk =   0.0400000
        k(   45) = (   0.1838235   0.0735294   0.1838235), wk =   0.0400000
        k(   46) = (   0.1470588   0.0588235   0.1470588), wk =   0.0400000
        k(   47) = (   0.1102941   0.0441176   0.1102941), wk =   0.0400000
        k(   48) = (   0.0735294   0.0294118   0.0735294), wk =   0.0400000
        k(   49) = (   0.0367647   0.0147059   0.0367647), wk =   0.0400000
        k(   50) = (   0.0000000   0.0000000   0.0000000), wk =   0.0400000

     Dense  grid:    12939 G-vectors     FFT dimensions: (  36,  36,  36)

     Smooth grid:     9257 G-vectors     FFT dimensions: (  30,  30,  30)

     Estimated max dynamical RAM per process >      13.63Mb

     The potential is recalculated from file :
     ./pwscf.save/charge-density.dat

     Starting wfc are    8 randomized atomic wfcs

     Band Structure Calculation
     Davidson diagonalization with overlap

     Computing kpt #:     1
     total cpu time spent up to now is        1.1 secs

     Computing kpt #:     2
     total cpu time spent up to now is        1.5 secs

     Computing kpt #:     3
     total cpu time spent up to now is        1.9 secs

     Computing kpt #:     4
     total cpu time spent up to now is        2.4 secs

     Computing kpt #:     5
     total cpu time spent up to now is        2.9 secs

     Computing kpt #:     6
     total cpu time spent up to now is        3.5 secs

     Computing kpt #:     7
     total cpu time spent up to now is        4.0 secs

     Computing kpt #:     8
     total cpu time spent up to now is        4.4 secs

     Computing kpt #:     9
     total cpu time spent up to now is        4.9 secs

     Computing kpt #:    10
     total cpu time spent up to now is        5.3 secs

     Computing kpt #:    11
     total cpu time spent up to now is        5.7 secs

     Computing kpt #:    12
     total cpu time spent up to now is        6.1 secs

     Computing kpt #:    13
     total cpu time spent up to now is        6.5 secs

     Computing kpt #:    14
     total cpu time spent up to now is        6.9 secs

     Computing kpt #:    15
     total cpu time spent up to now is        7.2 secs

     Computing kpt #:    16
     total cpu time spent up to now is        7.7 secs

     Computing kpt #:    17
     total cpu time spent up to now is        8.1 secs

     Computing kpt #:    18
     total cpu time spent up to now is        8.6 secs

     Computing kpt #:    19
     total cpu time spent up to now is        9.0 secs

     Computing kpt #:    20
     total cpu time spent up to now is        9.4 secs

     Computing kpt #:    21
     total cpu time spent up to now is        9.9 secs

     Computing kpt #:    22
     total cpu time spent up to now is       10.3 secs

     Computing kpt #:    23
     total cpu time spent up to now is       10.7 secs

     Computing kpt #:    24
     total cpu time spent up to now is       11.1 secs

     Computing kpt #:    25
     total cpu time spent up to now is       11.6 secs

     Computing kpt #:    26
     total cpu time spent up to now is       12.0 secs

     Computing kpt #:    27
     total cpu time spent up to now is       12.5 secs

     Computing kpt #:    28
     total cpu time spent up to now is       13.0 secs

     Computing kpt #:    29
     total cpu time spent up to now is       13.5 secs

     Computing kpt #:    30
     total cpu time spent up to now is       14.0 secs

     Computing kpt #:    31
     total cpu time spent up to now is       14.5 secs

     Computing kpt #:    32
     total cpu time spent up to now is       15.0 secs

     Computing kpt #:    33
     total cpu time spent up to now is       15.5 secs

     Computing kpt #:    34
     total cpu time spent up to now is       15.9 secs

     Computing kpt #:    35
     total cpu time spent up to now is       16.3 secs

     Computing kpt #:    36
     total cpu time spent up to now is       17.1 secs

     Computing kpt #:    37
     total cpu time spent up to now is       17.4 secs

     Computing kpt #:    38
     total cpu time spent up to now is       17.8 secs

     Computing kpt #:    39
     total cpu time spent up to now is       18.1 secs

     Computing kpt #:    40
     total cpu time spent up to now is       18.5 secs

     Computing kpt #:    41
     total cpu time spent up to now is       18.9 secs

     Computing kpt #:    42
     total cpu time spent up to now is       19.3 secs

     Computing kpt #:    43
     total cpu time spent up to now is       19.8 secs

     Computing kpt #:    44
     total cpu time spent up to now is       20.2 secs

     Computing kpt #:    45
     total cpu time spent up to now is       20.6 secs

     Computing kpt #:    46
     total cpu time spent up to now is       21.0 secs

     Computing kpt #:    47
     total cpu time spent up to now is       21.3 secs

     Computing kpt #:    48
     total cpu time spent up to now is       21.6 secs

     Computing kpt #:    49
     total cpu time spent up to now is       21.9 secs

     Computing kpt #:    50
     total cpu time spent up to now is       22.2 secs

     ethr =  1.25E-09,  avg # of iterations = 15.1

     total cpu time spent up to now is       22.2 secs

     End of band structure calculation

          k = 0.3536 0.3536 0.3536 (  1158 PWs)   bands (ev):

    -3.4361  -0.7749   4.9930   4.9930   7.7304   9.5377   9.5377  13.9241

          k = 0.3241 0.3241 0.3241 (  1164 PWs)   bands (ev):

    -3.5312  -0.6369   5.0054   5.0054   7.7447   9.5520   9.5520  13.9461

          k = 0.2946 0.2946 0.2946 (  1155 PWs)   bands (ev):

    -3.7698  -0.2698   5.0428   5.0428   7.7875   9.5919   9.5919  14.0062

          k = 0.2652 0.2652 0.2652 (  1155 PWs)   bands (ev):

    -4.0734   0.2469   5.1049   5.1049   7.8583   9.6482   9.6482  14.0776

          k = 0.2357 0.2357 0.2357 (  1149 PWs)   bands (ev):

    -4.3899   0.8595   5.1913   5.1913   7.9558   9.7036   9.7036  14.0609

          k = 0.2062 0.2062 0.2062 (  1161 PWs)   bands (ev):

    -4.6922   1.5385   5.3010   5.3010   8.0780   9.7317   9.7317  13.7133

          k = 0.1768 0.1768 0.1768 (  1164 PWs)   bands (ev):

    -4.9666   2.2661   5.4321   5.4321   8.2215   9.7011   9.7011  13.1067

          k = 0.1473 0.1473 0.1473 (  1167 PWs)   bands (ev):

    -5.2056   3.0287   5.5810   5.5810   8.3801   9.5900   9.5900  12.3877

          k = 0.1179 0.1179 0.1179 (  1167 PWs)   bands (ev):

    -5.4049   3.8117   5.7415   5.7415   8.5437   9.4051   9.4051  11.6405

          k = 0.0884 0.0884 0.0884 (  1173 PWs)   bands (ev):

    -5.5619   4.5936   5.9029   5.9029   8.6948   9.1821   9.1821  10.8983

          k = 0.0589 0.0589 0.0589 (  1185 PWs)   bands (ev):

    -5.6750   5.3333   6.0481   6.0481   8.8012   8.9692   8.9692  10.2148

          k = 0.0295 0.0295 0.0295 (  1164 PWs)   bands (ev):

    -5.7432   5.9354   6.1529   6.1529   8.8087   8.8147   8.8147   9.7164

          k = 0.0000 0.0000 0.0000 (  1139 PWs)   bands (ev):

    -5.7659   6.1917   6.1917   6.1917   8.7578   8.7578   8.7578   9.5507

          k = 0.0000 0.0471 0.0000 (  1171 PWs)   bands (ev):

    -5.7465   6.0615   6.1099   6.1099   8.7100   8.8636   8.8636   9.6776

          k = 0.0000 0.0943 0.0000 (  1175 PWs)   bands (ev):

    -5.6882   5.7201   5.8977   5.8977   8.5761   9.1474   9.1474   9.9980

          k = 0.0000 0.1414 0.0000 (  1171 PWs)   bands (ev):

    -5.5912   5.2531   5.6157   5.6157   8.3796   9.5482   9.5482  10.3779

          k = 0.0000 0.1886 0.0000 (  1163 PWs)   bands (ev):

    -5.4557   4.7203   5.3080   5.3080   8.1468  10.0207  10.0207  10.6172

          k = 0.0000 0.2357 0.0000 (  1162 PWs)   bands (ev):

    -5.2820   4.1533   4.9997   4.9997   7.9004  10.4942  10.5389  10.5389

          k = 0.0000 0.2828 0.0000 (  1170 PWs)   bands (ev):

    -5.0708   3.5682   4.7045   4.7045   7.6578  10.0854  11.0877  11.0877

          k = 0.0000 0.3300 0.0000 (  1162 PWs)   bands (ev):

    -4.8224   2.9737   4.4305   4.4305   7.4311   9.5849  11.6585  11.6585

          k = 0.0000 0.3771 0.0000 (  1162 PWs)   bands (ev):

    -4.5376   2.3751   4.1824   4.1824   7.2293   9.0827  12.2455  12.2455

          k = 0.0000 0.4243 0.0000 (  1146 PWs)   bands (ev):

    -4.2173   1.7765   3.9633   3.9633   7.0588   8.6132  12.8455  12.8455

          k = 0.0000 0.4714 0.0000 (  1150 PWs)   bands (ev):

    -3.8626   1.1812   3.7754   3.7754   6.9243   8.1909  13.4564  13.4564

          k = 0.0000 0.5185 0.0000 (  1150 PWs)   bands (ev):

    -3.4746   0.5928   3.6201   3.6201   6.8298   7.8222  14.0765  14.0765

          k = 0.0000 0.5657 0.0000 (  1154 PWs)   bands (ev):

    -3.0549   0.0147   3.4984   3.4984   6.7784   7.5098  14.7038  14.7038

          k = 0.0000 0.6128 0.0000 (  1154 PWs)   bands (ev):

    -2.6051  -0.5496   3.4111   3.4111   6.7727   7.2540  15.3320  15.3320

          k = 0.0000 0.6600 0.0000 (  1162 PWs)   bands (ev):

    -2.1272  -1.0967   3.3584   3.3584   6.8153   7.0540  15.9339  15.9339

          k = 0.0000 0.7071 0.0000 (  1162 PWs)   bands (ev):

    -1.6236  -1.6236   3.3409   3.3409   6.9084   6.9084  16.2980  16.2980

          k = 0.0354 0.7071 0.0354 (  1156 PWs)   bands (ev):

    -1.6329  -1.5999   3.1989   3.3584   6.9286   7.1229  16.0687  16.1713

          k = 0.0707 0.7071 0.0707 (  1146 PWs)   bands (ev):

    -1.6650  -1.5289   2.8609   3.4109   6.9891   7.6825  15.5485  15.8439

          k = 0.1061 0.7071 0.1061 (  1154 PWs)   bands (ev):

    -1.7318  -1.4108   2.4719   3.4975   7.0892   8.4526  14.9296  15.4063

          k = 0.1414 0.7071 0.1414 (  1152 PWs)   bands (ev):

    -1.8508  -1.2456   2.1310   3.6171   7.2275   9.3488  14.2906  14.8647

          k = 0.1768 0.7071 0.1768 (  1144 PWs)   bands (ev):

    -2.0375  -1.0337   1.8938   3.7678   7.4021  10.3251  13.6618  14.2070

          k = 0.1664 0.6655 0.1664 (  1146 PWs)   bands (ev):

    -2.1002  -0.9833   1.9922   3.7329   7.3651  10.0499  13.6285  13.9091

          k = 0.1560 0.6239 0.1560 (  1146 PWs)   bands (ev):

    -2.3645  -0.7338   2.1686   3.7261   7.3662   9.8183  13.3936  13.5162

          k = 0.1456 0.5823 0.1456 (  1147 PWs)   bands (ev):

    -2.7093  -0.3881   2.4031   3.7481   7.4031   9.6357  13.1221  13.1243

          k = 0.1352 0.5407 0.1352 (  1152 PWs)   bands (ev):

    -3.0751   0.0068   2.6803   3.7992   7.4707   9.5091  12.7370  12.8476

          k = 0.1248 0.4991 0.1248 (  1159 PWs)   bands (ev):

    -3.4383   0.4352   2.9886   3.8796   7.5612   9.4477  12.3554  12.5746

          k = 0.1144 0.4575 0.1144 (  1151 PWs)   bands (ev):

    -3.7874   0.8910   3.3183   3.9890   7.6643   9.4618  11.9810  12.2989

          k = 0.1040 0.4159 0.1040 (  1151 PWs)   bands (ev):

    -4.1158   1.3710   3.6611   4.1269   7.7694   9.5591  11.6162  12.0124

          k = 0.0936 0.3744 0.0936 (  1145 PWs)   bands (ev):

    -4.4194   1.8732   4.0095   4.2926   7.8705   9.7370  11.2673  11.7054

          k = 0.0832 0.3328 0.0832 (  1151 PWs)   bands (ev):

    -4.6957   2.3957   4.3568   4.4847   7.9685   9.9679  10.9539  11.3692

          k = 0.0728 0.2912 0.0728 (  1155 PWs)   bands (ev):

    -4.9425   2.9360   4.6966   4.7015   8.0689  10.1383  10.7663  11.0008

          k = 0.0624 0.2496 0.0624 (  1159 PWs)   bands (ev):

    -5.1586   3.4908   4.9398   5.0223   8.1771  10.0308  10.6047  10.8700

          k = 0.0520 0.2080 0.0520 (  1162 PWs)   bands (ev):

    -5.3428   4.0547   5.1950   5.3274   8.2956   9.7766  10.1931  11.0037

          k = 0.0416 0.1664 0.0416 (  1168 PWs)   bands (ev):

    -5.4945   4.6185   5.4594   5.6037   8.4215   9.5075   9.7840  10.8418

          k = 0.0312 0.1248 0.0312 (  1173 PWs)   bands (ev):

    -5.6129   5.1656   5.7201   5.8415   8.5462   9.2539   9.4004  10.4294

          k = 0.0208 0.0832 0.0208 (  1179 PWs)   bands (ev):

    -5.6978   5.6626   5.9547   6.0283   8.6552   9.0258   9.0726   9.9880

          k = 0.0104 0.0416 0.0104 (  1171 PWs)   bands (ev):

    -5.7489   6.0417   6.1267   6.1495   8.7308   8.8394   8.8425   9.6659

          k = 0.0000 0.0000 0.0000 (  1139 PWs)   bands (ev):

    -5.7659   6.1917   6.1917   6.1917   8.7578   8.7578   8.7578   9.5507

     Writing output data file pwscf.save

     init_run     :      0.72s CPU      0.55s WALL (       1 calls)
     electrons    :     38.92s CPU     21.54s WALL (       1 calls)

     Called by init_run:
     wfcinit      :      0.00s CPU      0.00s WALL (       1 calls)
     wfcinit:atom :      0.03s CPU      0.02s WALL (      50 calls)
     wfcinit:wfcr :      2.72s CPU      1.54s WALL (      50 calls)
     potinit      :      0.05s CPU      0.05s WALL (       1 calls)

     Called by electrons:
     c_bands      :     38.92s CPU     21.53s WALL (       1 calls)
     v_of_rho     :      0.05s CPU      0.04s WALL (       1 calls)
     v_h          :      0.00s CPU      0.00s WALL (       1 calls)
     v_xc         :      0.05s CPU      0.04s WALL (       1 calls)
     newd         :      0.05s CPU      0.08s WALL (       1 calls)

     Called by c_bands:
     init_us_2    :      0.09s CPU      0.05s WALL (      50 calls)
     cegterg      :     35.09s CPU     19.09s WALL (      53 calls)

     Called by sum_band:

     Called by *egterg:
     h_psi        :     34.20s CPU     18.47s WALL (     858 calls)
     s_psi        :      0.28s CPU      0.28s WALL (     858 calls)
     g_psi        :      0.16s CPU      0.06s WALL (     755 calls)
     cdiaghg      :      1.42s CPU      0.85s WALL (     805 calls)
     cegterg:over :      0.56s CPU      0.34s WALL (     755 calls)
     cegterg:upda :      0.42s CPU      0.27s WALL (     755 calls)
     cegterg:last :      0.47s CPU      0.19s WALL (     199 calls)

     Called by h_psi:
     h_psi:pot    :     34.16s CPU     18.42s WALL (     858 calls)
     h_psi:calbec :      0.61s CPU      0.32s WALL (     858 calls)
     vloc_psi     :     33.16s CPU     17.77s WALL (     858 calls)
     add_vuspsi   :      0.39s CPU      0.32s WALL (     858 calls)

     General routines
     calbec       :      0.61s CPU      0.30s WALL (     858 calls)
     fft          :      0.02s CPU      0.02s WALL (      13 calls)
     ffts         :      0.00s CPU      0.00s WALL (       1 calls)
     fftw         :     31.77s CPU     16.93s WALL (    9948 calls)
     interpolate  :      0.00s CPU      0.00s WALL (       1 calls)
     davcio       :      0.00s CPU      0.00s WALL (      50 calls)

     Parallel routines
     fft_scatter  :      0.91s CPU      0.38s WALL (    9962 calls)

     PWSCF        :    40.00s CPU        22.52s WALL


   This run was terminated on:  11:50:19  25Feb2021            

=------------------------------------------------------------------------------=
   JOB DONE.
=------------------------------------------------------------------------------=
