element =  Ta
struct =  bcc
nbands =  -4
path =  GHNGP
kpts =  (8,8,8)

  ___ ___ ___ _ _ _  
 |   |   |_  | | | | 
 | | | | | . | | | | 
 |__ |  _|___|_____|  1.3.1b1
 |___|_|             

User:   inukai@DESKTOP-12SE80T
Date:   Wed Feb  3 03:42:41 2021
Arch:   x86_64
Pid:    6937
Python: 3.6.9
gpaw:   /usr/lib/python3/dist-packages/gpaw
_gpaw:  /usr/lib/python3/dist-packages/_gpaw.cpython-36m-x86_64-linux-gnu.so
ase:    /home/inukai/hotcent/ase-3.19.3/ase (version 3.19.3)
numpy:  /home/inukai/.local/lib/python3.6/site-packages/numpy (version 1.19.5)
scipy:  /home/inukai/.local/lib/python3.6/site-packages/scipy (version 1.5.4)
units:  Angstrom and eV
cores:  1

Input parameters:
  kpts: [8 8 8]
  maxiter: 200
  mixer: {backend: pulay,
          beta: 0.05,
          method: separate,
          nmaxold: 8,
          weight: 100}
  mode: {ecut: 400.0,
         name: pw}
  occupations: {name: fermi-dirac,
                width: 0.02}
  spinpol: False
  xc: PBE

System changes: positions, numbers, cell, pbc, initial_charges, initial_magmoms 

Initialize ...

Ta-setup:
  name: Tantalum
  id: 11af46c593fc4ab177d7f3c18ea2003e
  Z: 73
  valence: 13
  core: 60
  charge: 0.0
  file: /usr/share/gpaw-setups/Ta.PBE.gz
  cutoffs: 1.32(comp), 2.36(filt), 3.45(core), lmax=2
  valence states:
                energy  radius
    5s(2.00)   -72.790   1.365
    6s(2.00)    -5.429   1.365
    5p(6.00)   -39.427   1.349
    6p(0.00)    -1.396   1.349
    5d(3.00)    -3.603   1.307
    *d          23.609   1.307

  Using partial waves for Ta as LCAO basis

Reference energy: -424172.441401

Spin-paired calculation

Occupation numbers:
  Fermi-Dirac: width=0.0200 eV

Convergence criteria:
  Maximum total energy change: 0.0005 eV / electron
  Maximum integral of absolute density change: 0.0001 electrons
  Maximum integral of absolute eigenstate change: 4e-08 eV^2
  Maximum number of iterations: 200

Symmetries present (total): 48

  ( 1  1  1)  ( 1  1  1)  ( 1  1  1)  ( 1  1  1)  ( 1  1  1)  ( 1  1  1)
  ( 0  0 -1)  ( 0  0 -1)  ( 0 -1  0)  ( 0 -1  0)  (-1  0  0)  (-1  0  0)
  ( 0 -1  0)  (-1  0  0)  ( 0  0 -1)  (-1  0  0)  ( 0  0 -1)  ( 0 -1  0)

  ( 1  0  0)  ( 1  0  0)  ( 1  0  0)  ( 1  0  0)  ( 1  0  0)  ( 1  0  0)
  ( 0  1  0)  ( 0  1  0)  ( 0  0  1)  ( 0  0  1)  (-1 -1 -1)  (-1 -1 -1)
  ( 0  0  1)  (-1 -1 -1)  ( 0  1  0)  (-1 -1 -1)  ( 0  1  0)  ( 0  0  1)

  ( 0  1  0)  ( 0  1  0)  ( 0  1  0)  ( 0  1  0)  ( 0  1  0)  ( 0  1  0)
  ( 1  0  0)  ( 1  0  0)  ( 0  0  1)  ( 0  0  1)  (-1 -1 -1)  (-1 -1 -1)
  ( 0  0  1)  (-1 -1 -1)  ( 1  0  0)  (-1 -1 -1)  ( 1  0  0)  ( 0  0  1)

  ( 0  0  1)  ( 0  0  1)  ( 0  0  1)  ( 0  0  1)  ( 0  0  1)  ( 0  0  1)
  ( 1  0  0)  ( 1  0  0)  ( 0  1  0)  ( 0  1  0)  (-1 -1 -1)  (-1 -1 -1)
  ( 0  1  0)  (-1 -1 -1)  ( 1  0  0)  (-1 -1 -1)  ( 1  0  0)  ( 0  1  0)

  ( 0  0 -1)  ( 0  0 -1)  ( 0  0 -1)  ( 0  0 -1)  ( 0  0 -1)  ( 0  0 -1)
  ( 1  1  1)  ( 1  1  1)  ( 0 -1  0)  ( 0 -1  0)  (-1  0  0)  (-1  0  0)
  ( 0 -1  0)  (-1  0  0)  ( 1  1  1)  (-1  0  0)  ( 1  1  1)  ( 0 -1  0)

  ( 0 -1  0)  ( 0 -1  0)  ( 0 -1  0)  ( 0 -1  0)  ( 0 -1  0)  ( 0 -1  0)
  ( 1  1  1)  ( 1  1  1)  ( 0  0 -1)  ( 0  0 -1)  (-1  0  0)  (-1  0  0)
  ( 0  0 -1)  (-1  0  0)  ( 1  1  1)  (-1  0  0)  ( 1  1  1)  ( 0  0 -1)

  (-1  0  0)  (-1  0  0)  (-1  0  0)  (-1  0  0)  (-1  0  0)  (-1  0  0)
  ( 1  1  1)  ( 1  1  1)  ( 0  0 -1)  ( 0  0 -1)  ( 0 -1  0)  ( 0 -1  0)
  ( 0  0 -1)  ( 0 -1  0)  ( 1  1  1)  ( 0 -1  0)  ( 1  1  1)  ( 0  0 -1)

  (-1 -1 -1)  (-1 -1 -1)  (-1 -1 -1)  (-1 -1 -1)  (-1 -1 -1)  (-1 -1 -1)
  ( 1  0  0)  ( 1  0  0)  ( 0  1  0)  ( 0  1  0)  ( 0  0  1)  ( 0  0  1)
  ( 0  1  0)  ( 0  0  1)  ( 1  0  0)  ( 0  0  1)  ( 1  0  0)  ( 0  1  0)

512 k-points: 8 x 8 x 8 Monkhorst-Pack grid
26 k-points in the irreducible part of the Brillouin zone
       k-points in crystal coordinates                weights
   0:     0.06250000    0.06250000   -0.06250000          6/512
   1:     0.18750000   -0.06250000   -0.06250000          8/512
   2:     0.18750000    0.06250000   -0.06250000         24/512
   3:     0.18750000    0.18750000   -0.18750000          6/512
   4:     0.31250000   -0.06250000   -0.06250000         24/512
   5:     0.31250000    0.06250000   -0.18750000         24/512
   6:     0.31250000    0.06250000   -0.06250000         24/512
   7:     0.31250000    0.18750000   -0.18750000         24/512
   8:     0.31250000    0.31250000   -0.31250000          6/512
   9:     0.31250000    0.31250000    0.18750000         12/512
          ...
  25:     0.43750000    0.43750000    0.43750000          8/512

Wave functions: Plane wave expansion
  Cutoff energy: 400.000 eV
  Number of coefficients (min, max): 322, 339
  Using FFTW library
  Eigensolver: None  MatrixOperator buffer_size: default value or 
                              see value of nblock in input file
Diagonalizer layout: Serial LAPACKOrthonormalizer layout: Serial LAPACK 

Davidson(niter=1, smin=None, normalize=True) 

Densities:
  Coarse grid: 12*12*12 grid
  Fine grid: 24*24*24 grid
  Total Charge: 0.000000 

Density mixing:
  Method: separate
  Backend: pulay
  Linear mixing parameter: 0.05
  Mixing with 8 old densities
  Damping of long wave oscillations: 100 

Hamiltonian:
  XC and Coulomb potentials evaluated on a 24*24*24 grid
  Using the PBE Exchange-Correlation functional
 

Memory estimate:
  Process memory now: 924.48 MiB
  Calculator: 4.21 MiB
    Density: 0.81 MiB
      Arrays: 0.34 MiB
      Localized functions: 0.26 MiB
      Mixer: 0.21 MiB
    Hamiltonian: 0.23 MiB
      Arrays: 0.22 MiB
      XC: 0.00 MiB
      Poisson: 0.00 MiB
      vbar: 0.01 MiB
    Wavefunctions: 3.17 MiB
      Arrays psit_nG: 1.75 MiB
      Eigensolver: 0.12 MiB
      Projections: 0.09 MiB
      Projectors: 0.98 MiB
      Overlap op: 0.07 MiB
      PW-descriptor: 0.16 MiB

Total number of cores used: 1

Number of atoms: 1
Number of atomic orbitals: 13
Number of bands in calculation: 13
Bands to converge: occupied states only
Number of valence electrons: 13

... initialized

Initializing position-dependent things.

Density initialized from atomic densities
Creating initial wave functions:
  13 bands from LCAO basis set

                
                
                
       Ta       
                
                
                
                

Positions:
   0 Ta     0.000000    0.000000    0.000000

Unit cell:
           periodic     x           y           z      points  spacing
  1. axis:    yes   -1.655000    1.655000    1.655000    12     0.1950
  2. axis:    yes    1.655000   -1.655000    1.655000    12     0.1950
  3. axis:    yes    1.655000    1.655000   -1.655000    12     0.1950

  Lengths:   2.866544   2.866544   2.866544
  Angles:  109.471221 109.471221 109.471221

Effective grid spacing dv^(1/3) = 0.2189

                     log10-error:    total        iterations:
           time      wfs    density  energy       fermi  poisson
iter:   1  03:42:44  +2.11   +inf    -9.947952    3             
iter:   2  03:42:44  -0.11   +inf    -9.989224    4             
iter:   3  03:42:45  -1.06   +inf    -9.994713    3             
iter:   4  03:42:45  -1.47  -1.31    -9.964885    4             
iter:   5  03:42:46  -0.08  -1.34    -9.833726    33            
iter:   6  03:42:47  -1.27  -2.07    -9.824153    4             
iter:   7  03:42:48  -2.11  -2.18    -9.823769    3             
iter:   8  03:42:48  -2.19  -2.57    -9.823433    3             
iter:   9  03:42:49  -3.05  -3.26    -9.823432    3             
iter:  10  03:42:50  -3.46  -3.14    -9.823442    3             
iter:  11  03:42:50  -4.34  -3.87    -9.823435    2             
iter:  12  03:42:51  -5.17  -4.26    -9.823435    2             
iter:  13  03:42:52  -5.85  -4.24    -9.823435    1             
iter:  14  03:42:53  -6.46  -4.19    -9.823435    2             
iter:  15  03:42:53  -6.49  -4.31    -9.823436    2             
iter:  16  03:42:54  -7.47  -4.90    -9.823436    1             

Converged after 16 iterations.

Dipole moment: (0.000000, -0.000000, 0.000000) |e|*Ang

Energy contributions relative to reference atoms: (reference = -424172.441401)

Kinetic:         +9.683907
Potential:      -10.209769
External:        +0.000000
XC:              -9.040818
Entropy (-ST):   -0.003168
Local:           -0.255173
--------------------------
Free energy:     -9.825020
Extrapolated:    -9.823436

Fermi level: 11.68622

Warning: Showing only first 2 kpts
 Kpt  Band  Eigenvalues  Occupancy
  0     4      4.22063    0.02344
  0     5     12.38501    0.00000
  0     6     12.38552    0.00000
  0     7     12.59516    0.00000

  1     4      4.85688    0.03125
  1     5     11.88474    0.00000
  1     6     11.88523    0.00000
  1     7     13.61717    0.00000


Input parameters:
  convergence: {bands: all}
  eigensolver: {name: cg,
                niter: 5}
  fixdensity: True
  kpts: {npoints: 50,
         path: GHNGP}
  nbands: -4
  symmetry: off

Initialize ...

Ta-setup:
  name: Tantalum
  id: 11af46c593fc4ab177d7f3c18ea2003e
  Z: 73
  valence: 13
  core: 60
  charge: 0.0
  file: /usr/share/gpaw-setups/Ta.PBE.gz
  cutoffs: 1.32(comp), 2.36(filt), 3.45(core), lmax=2
  valence states:
                energy  radius
    5s(2.00)   -72.790   1.365
    6s(2.00)    -5.429   1.365
    5p(6.00)   -39.427   1.349
    6p(0.00)    -1.396   1.349
    5d(3.00)    -3.603   1.307
    *d          23.609   1.307

  Using partial waves for Ta as LCAO basis

Reference energy: -424172.441401

Spin-paired calculation

Occupation numbers:
  Fixed Fermi level
  Fermi-Dirac: width=0.0200 eV

Convergence criteria:
  Maximum total energy change: 0.0005 eV / electron
  Maximum integral of absolute density change: 0.0001 electrons
  Maximum integral of absolute eigenstate change: 4e-08 eV^2
  Maximum number of iterations: 200

Symmetries present (total): 1

  ( 1  0  0)
  ( 0  1  0)
  ( 0  0  1)

50 k-points
50 k-points in the irreducible part of the Brillouin zone
       k-points in crystal coordinates                weights
   0:     0.00000000    0.00000000    0.00000000          1/50
   1:     0.03571429   -0.03571429    0.03571429          1/50
   2:     0.07142857   -0.07142857    0.07142857          1/50
   3:     0.10714286   -0.10714286    0.10714286          1/50
   4:     0.14285714   -0.14285714    0.14285714          1/50
   5:     0.17857143   -0.17857143    0.17857143          1/50
   6:     0.21428571   -0.21428571    0.21428571          1/50
   7:     0.25000000   -0.25000000    0.25000000          1/50
   8:     0.28571429   -0.28571429    0.28571429          1/50
   9:     0.32142857   -0.32142857    0.32142857          1/50
          ...
  49:     0.25000000    0.25000000    0.25000000          1/50

Wave functions: Plane wave expansion
  Cutoff energy: 400.000 eV
  Number of coefficients (min, max): 321, 370
  Using FFTW library
  Eigensolver: None  MatrixOperator buffer_size: default value or 
                              see value of nblock in input file
Diagonalizer layout: Serial LAPACKOrthonormalizer layout: Serial LAPACK 

CG(niter=5, rtol=3.0e-01) 

No density mixing

Memory estimate:
  Process memory now: 979.43 MiB
  Calculator: 6.29 MiB
    Density: 0.81 MiB
      Arrays: 0.34 MiB
      Localized functions: 0.26 MiB
      Mixer: 0.21 MiB
    Hamiltonian: 0.23 MiB
      Arrays: 0.22 MiB
      XC: 0.00 MiB
      Poisson: 0.00 MiB
      vbar: 0.01 MiB
    Wavefunctions: 5.25 MiB
      Arrays psit_nG: 2.82 MiB
      Eigensolver: 0.08 MiB
      Projections: 0.14 MiB
      Projectors: 1.90 MiB
      Overlap op: 0.06 MiB
      PW-descriptor: 0.26 MiB

Total number of cores used: 1

Number of atoms: 1
Number of atomic orbitals: 13
Number of bands in calculation: 10
Bands to converge: all
Number of valence electrons: 13

... initialized

Initializing position-dependent things.

Creating initial wave functions:
  10 bands from LCAO basis set

                
                
                
       Ta       
                
                
                
                

Positions:
   0 Ta     0.000000    0.000000    0.000000

Unit cell:
           periodic     x           y           z      points  spacing
  1. axis:    yes   -1.655000    1.655000    1.655000    12     0.1950
  2. axis:    yes    1.655000   -1.655000    1.655000    12     0.1950
  3. axis:    yes    1.655000    1.655000   -1.655000    12     0.1950

  Lengths:   2.866544   2.866544   2.866544
  Angles:  109.471221 109.471221 109.471221

Effective grid spacing dv^(1/3) = 0.2189

                     log10-error:    total        iterations:
           time      wfs    density  energy       fermi  poisson
iter:   1  03:42:58  +1.00          -10.571829    34            
iter:   2  03:43:00  +0.06          -10.595239    29            
iter:   3  03:43:02  -0.89          -10.599211    34            
iter:   4  03:43:04  -1.75          -10.599572    33            
iter:   5  03:43:06  -2.66          -10.599640    33            
iter:   6  03:43:08  -3.45          -10.599652    34            
iter:   7  03:43:10  -4.23          -10.599654    33            
iter:   8  03:43:11  -4.93          -10.599654    34            
iter:   9  03:43:13  -5.65          -10.599654    32            
iter:  10  03:43:13  -6.28          -10.599654    33            
iter:  11  03:43:14  -6.93          -10.599654    28            
iter:  12  03:43:15  -7.50          -10.599654    34            

Converged after 12 iterations.

Dipole moment: (0.000000, -0.000000, 0.000000) |e|*Ang

Energy contributions relative to reference atoms: (reference = -424172.441401)

Kinetic:         +8.910191
Potential:      -10.209756
External:        +0.000000
XC:              -9.040801
Entropy (-ST):   -0.008202
Local:           -0.255187
--------------------------
Free energy:    -10.603755
Extrapolated:   -10.599654

Fixed Fermi level: 11.68622

Warning: Showing only first 2 kpts
 Kpt  Band  Eigenvalues  Occupancy
  0     4      3.87840    0.04000
  0     5     12.43276    0.00916
  0     6     12.43276    0.00916
  0     7     12.43355    0.00888

  1     4      3.99139    0.04000
  1     5     12.41527    0.01664
  1     6     12.41579    0.01638
  1     7     12.48611    0.00081


Timing:                              incl.     excl.
-----------------------------------------------------------
Hamiltonian:                         0.492     0.001   0.0% |
 Atomic:                             0.425     0.003   0.0% |
  XC Correction:                     0.422     0.422   1.2% |
 Calculate atomic Hamiltonians:      0.006     0.006   0.0% |
 Communicate:                        0.000     0.000   0.0% |
 Initialize Hamiltonian:             0.000     0.000   0.0% |
 Poisson:                            0.000     0.000   0.0% |
 XC 3D grid:                         0.059     0.059   0.2% |
LCAO initialization:                 2.649     0.415   1.2% |
 LCAO eigensolver:                   0.826     0.007   0.0% |
  Calculate projections:             0.002     0.002   0.0% |
  DenseAtomicCorrection:             0.013     0.013   0.0% |
  Distribute overlap matrix:         0.003     0.003   0.0% |
  Orbital Layouts:                   0.046     0.046   0.1% |
  Potential matrix:                  0.345     0.345   1.0% |
  Sum over cells:                    0.411     0.411   1.2% |
 LCAO to grid:                       0.541     0.541   1.6% ||
 Set positions (LCAO WFS):           0.868     0.000   0.0% |
  Basic WFS set positions:           0.002     0.002   0.0% |
  Basis functions set positions:     0.000     0.000   0.0% |
  TCI: Calculate S, T, P:            0.865     0.865   2.5% ||
PWDescriptor:                        0.015     0.015   0.0% |
Redistribute:                        0.000     0.000   0.0% |
SCF-cycle:                          29.029     3.227   9.3% |---|
 CG:                                13.724    12.076  35.0% |-------------|
  CG: orthonormalize:                1.648     0.946   2.7% ||
   CG: overlap:                      0.430     0.430   1.2% |
   CG: overlap2:                     0.272     0.272   0.8% |
 Davidson:                           4.427     2.380   6.9% |--|
  calc. matrices:                    1.086     1.086   3.1% ||
  diagonalize:                       0.802     0.802   2.3% ||
  rotate_psi:                        0.158     0.158   0.5% |
 Density:                            1.078     0.001   0.0% |
  Atomic density matrices:           0.049     0.049   0.1% |
  Mix:                               0.061     0.061   0.2% |
  Multipole moments:                 0.003     0.003   0.0% |
  Pseudo density:                    0.964     0.794   2.3% ||
   Symmetrize density:               0.170     0.170   0.5% |
 Hamiltonian:                        3.270     0.009   0.0% |
  Atomic:                            2.916     0.020   0.1% |
   XC Correction:                    2.896     2.896   8.4% |--|
  Calculate atomic Hamiltonians:     0.036     0.036   0.1% |
  Communicate:                       0.000     0.000   0.0% |
  Poisson:                           0.003     0.003   0.0% |
  XC 3D grid:                        0.306     0.306   0.9% |
 Orthonormalize:                     0.083     0.006   0.0% |
  Band Layouts:                      0.006     0.001   0.0% |
   Inverse Cholesky:                 0.004     0.004   0.0% |
  calc_s_matrix:                     0.013     0.013   0.0% |
  projections:                       0.047     0.047   0.1% |
  rotate_psi:                        0.012     0.012   0.0% |
 Residuals:                          0.511     0.511   1.5% ||
 Subspace diag:                      2.709     0.130   0.4% |
  Band Layouts:                      0.403     0.038   0.1% |
   Diagonalize:                      0.338     0.338   1.0% |
   Distribute results:               0.027     0.027   0.1% |
  calc_h_matrix:                     1.876     1.876   5.4% |-|
  rotate_psi:                        0.300     0.300   0.9% |
Set symmetry:                        0.099     0.099   0.3% |
Other:                               2.256     2.256   6.5% |--|
-----------------------------------------------------------
Total:                                        34.540 100.0%

Date: Wed Feb  3 03:43:16 2021
element =  Ta
struct =  bcc
kpts =  (8,8,8)
element =  Ta
configuration =  [Xe] 5d3 6s2 6p0
valence =  ['5d', '6s', '6p']
occupations =  {'5d': 3, '6s': 2, '6p': 0}
nls =  5d
rNum =  600
lmax =  f
*******************************************
Starting confinement parameter optimization
Adjustable parameters and initial values:
  Ta_5d.r0 : 6.425069
  Ta_6p.r0 : 6.425069
  Ta_6s.r0 : 6.425069
  Ta_n.r0 : 9.637603
*******************************************

OPT_VAL: 6.425068827845556   6.425068827845556   6.425068827845556   9.637603241768334
VCONF:
  Ta_5d : PowerConfinement(r0=6.425069, s=2.000000)
  Ta_6p : PowerConfinement(r0=6.425069, s=2.000000)
  Ta_6s : PowerConfinement(r0=6.425069, s=2.000000)
  Ta_n : PowerConfinement(r0=9.637603, s=2.000000)
RESIDUAL: 0.0

OPT_VAL: 6.625068827845556   6.425068827845556   6.425068827845556   9.637603241768334
VCONF:
  Ta_5d : PowerConfinement(r0=6.625069, s=2.000000)
  Ta_6p : PowerConfinement(r0=6.425069, s=2.000000)
  Ta_6s : PowerConfinement(r0=6.425069, s=2.000000)
  Ta_n : PowerConfinement(r0=9.637603, s=2.000000)
RESIDUAL: 0.0

OPT_VAL: 6.425068827845556   6.625068827845556   6.425068827845556   9.637603241768334
VCONF:
  Ta_5d : PowerConfinement(r0=6.425069, s=2.000000)
  Ta_6p : PowerConfinement(r0=6.625069, s=2.000000)
  Ta_6s : PowerConfinement(r0=6.425069, s=2.000000)
  Ta_n : PowerConfinement(r0=9.637603, s=2.000000)
RESIDUAL: 0.0

OPT_VAL: 6.425068827845556   6.425068827845556   6.625068827845556   9.637603241768334
VCONF:
  Ta_5d : PowerConfinement(r0=6.425069, s=2.000000)
  Ta_6p : PowerConfinement(r0=6.425069, s=2.000000)
  Ta_6s : PowerConfinement(r0=6.625069, s=2.000000)
  Ta_n : PowerConfinement(r0=9.637603, s=2.000000)
RESIDUAL: 0.0

OPT_VAL: 6.425068827845556   6.425068827845556   6.425068827845556   9.837603241768333
VCONF:
  Ta_5d : PowerConfinement(r0=6.425069, s=2.000000)
  Ta_6p : PowerConfinement(r0=6.425069, s=2.000000)
  Ta_6s : PowerConfinement(r0=6.425069, s=2.000000)
  Ta_n : PowerConfinement(r0=9.837603, s=2.000000)
RESIDUAL: 0.0

OPT_VAL: 6.4500688278455565   6.425068827845556   6.425068827845556   9.637603241768334
VCONF:
  Ta_5d : PowerConfinement(r0=6.450069, s=2.000000)
  Ta_6p : PowerConfinement(r0=6.425069, s=2.000000)
  Ta_6s : PowerConfinement(r0=6.425069, s=2.000000)
  Ta_n : PowerConfinement(r0=9.637603, s=2.000000)
RESIDUAL: 0.0

OPT_VAL: 6.425068827845556   6.4500688278455565   6.425068827845556   9.637603241768334
VCONF:
  Ta_5d : PowerConfinement(r0=6.425069, s=2.000000)
  Ta_6p : PowerConfinement(r0=6.450069, s=2.000000)
  Ta_6s : PowerConfinement(r0=6.425069, s=2.000000)
  Ta_n : PowerConfinement(r0=9.637603, s=2.000000)
RESIDUAL: 0.0

OPT_VAL: 6.425068827845556   6.425068827845556   6.4500688278455565   9.637603241768334
VCONF:
  Ta_5d : PowerConfinement(r0=6.425069, s=2.000000)
  Ta_6p : PowerConfinement(r0=6.425069, s=2.000000)
  Ta_6s : PowerConfinement(r0=6.450069, s=2.000000)
  Ta_n : PowerConfinement(r0=9.637603, s=2.000000)
RESIDUAL: 0.0

OPT_VAL: 6.425068827845556   6.425068827845556   6.425068827845556   9.662603241768334
VCONF:
  Ta_5d : PowerConfinement(r0=6.425069, s=2.000000)
  Ta_6p : PowerConfinement(r0=6.425069, s=2.000000)
  Ta_6s : PowerConfinement(r0=6.425069, s=2.000000)
  Ta_n : PowerConfinement(r0=9.662603, s=2.000000)
RESIDUAL: 0.0

OPT_VAL: 6.430068827845556   6.425068827845556   6.425068827845556   9.637603241768334
VCONF:
  Ta_5d : PowerConfinement(r0=6.430069, s=2.000000)
  Ta_6p : PowerConfinement(r0=6.425069, s=2.000000)
  Ta_6s : PowerConfinement(r0=6.425069, s=2.000000)
  Ta_n : PowerConfinement(r0=9.637603, s=2.000000)
RESIDUAL: 0.0

OPT_VAL: 6.425068827845556   6.430068827845556   6.425068827845556   9.637603241768334
VCONF:
  Ta_5d : PowerConfinement(r0=6.425069, s=2.000000)
  Ta_6p : PowerConfinement(r0=6.430069, s=2.000000)
  Ta_6s : PowerConfinement(r0=6.425069, s=2.000000)
  Ta_n : PowerConfinement(r0=9.637603, s=2.000000)
RESIDUAL: 0.0

OPT_VAL: 6.425068827845556   6.425068827845556   6.430068827845556   9.637603241768334
VCONF:
  Ta_5d : PowerConfinement(r0=6.425069, s=2.000000)
  Ta_6p : PowerConfinement(r0=6.425069, s=2.000000)
  Ta_6s : PowerConfinement(r0=6.430069, s=2.000000)
  Ta_n : PowerConfinement(r0=9.637603, s=2.000000)
RESIDUAL: 0.0

OPT_VAL: 6.425068827845556   6.425068827845556   6.425068827845556   9.642603241768334
VCONF:
  Ta_5d : PowerConfinement(r0=6.425069, s=2.000000)
  Ta_6p : PowerConfinement(r0=6.425069, s=2.000000)
  Ta_6s : PowerConfinement(r0=6.425069, s=2.000000)
  Ta_n : PowerConfinement(r0=9.642603, s=2.000000)
RESIDUAL: 0.0

*******************************************
Optimization finished after 13 iterations
Adjustable parameters and final values:
  Ta_5d.r0 : 6.425069
  Ta_6p.r0 : 6.425069
  Ta_6s.r0 : 6.425069
  Ta_n.r0 : 9.637603
*******************************************

VCONF:
  Ta_5d : PowerConfinement(r0=6.425069, s=2.000000)
  Ta_6p : PowerConfinement(r0=6.425069, s=2.000000)
  Ta_6s : PowerConfinement(r0=6.425069, s=2.000000)
  Ta_n : PowerConfinement(r0=9.637603, s=2.000000)
