element =  S
struct =  bcc
nbands =  -4
path =  GHNGP
kpts =  (8,8,8)
lattice constant a =  3.158
lattice constant b =  3.158
lattice constant c =  3.158
alpha angle =  90.0

  ___ ___ ___ _ _ _  
 |   |   |_  | | | | 
 | | | | | . | | | | 
 |__ |  _|___|_____|  1.3.1b1
 |___|_|             

User:   inukai@DESKTOP-12SE80T
Date:   Thu Feb 11 15:20:34 2021
Arch:   x86_64
Pid:    10561
Python: 3.6.9
gpaw:   /usr/lib/python3/dist-packages/gpaw
_gpaw:  /usr/lib/python3/dist-packages/_gpaw.cpython-36m-x86_64-linux-gnu.so
ase:    /home/inukai/hotcent/ase-3.19.3/ase (version 3.19.3)
numpy:  /home/inukai/.local/lib/python3.6/site-packages/numpy (version 1.19.5)
scipy:  /home/inukai/.local/lib/python3.6/site-packages/scipy (version 1.5.4)
units:  Angstrom and eV
cores:  1

Input parameters:
  kpts: [8 8 8]
  maxiter: 1500
  mixer: {backend: pulay,
          beta: 0.01,
          method: separate,
          nmaxold: 11,
          weight: 100.0}
  mode: {ecut: 400.0,
         name: pw}
  occupations: {name: fermi-dirac,
                width: 0.02}
  spinpol: True
  xc: PBE

System changes: positions, numbers, cell, pbc, initial_charges, initial_magmoms 

Initialize ...

S-setup:
  name: Sulfur
  id: ca434db9faa07220b7a1d8cb6886b7a9
  Z: 16
  valence: 6
  core: 10
  charge: 0.0
  file: /usr/share/gpaw-setups/S.PBE.gz
  cutoffs: 0.76(comp), 1.77(filt), 1.66(core), lmax=2
  valence states:
                energy  radius
    3s(2.00)   -17.254   0.974
    3p(4.00)    -7.008   0.979
    *s           9.957   0.974
    *p          20.203   0.979
    *d           0.000   0.900

  Using partial waves for S as LCAO basis

Reference energy: -10857.619898

Spin-polarized calculation.
Magnetic moment:  0.000000

Occupation numbers:
  Fermi-Dirac: width=0.0200 eV

Convergence criteria:
  Maximum total energy change: 0.0005 eV / electron
  Maximum integral of absolute density change: 0.0001 electrons
  Maximum integral of absolute eigenstate change: 4e-08 eV^2
  Maximum number of iterations: 1500

Symmetries present (total): 48

  ( 1  1  1)  ( 1  1  1)  ( 1  1  1)  ( 1  1  1)  ( 1  1  1)  ( 1  1  1)
  ( 0  0 -1)  ( 0  0 -1)  ( 0 -1  0)  ( 0 -1  0)  (-1  0  0)  (-1  0  0)
  ( 0 -1  0)  (-1  0  0)  ( 0  0 -1)  (-1  0  0)  ( 0  0 -1)  ( 0 -1  0)

  ( 1  0  0)  ( 1  0  0)  ( 1  0  0)  ( 1  0  0)  ( 1  0  0)  ( 1  0  0)
  ( 0  1  0)  ( 0  1  0)  ( 0  0  1)  ( 0  0  1)  (-1 -1 -1)  (-1 -1 -1)
  ( 0  0  1)  (-1 -1 -1)  ( 0  1  0)  (-1 -1 -1)  ( 0  1  0)  ( 0  0  1)

  ( 0  1  0)  ( 0  1  0)  ( 0  1  0)  ( 0  1  0)  ( 0  1  0)  ( 0  1  0)
  ( 1  0  0)  ( 1  0  0)  ( 0  0  1)  ( 0  0  1)  (-1 -1 -1)  (-1 -1 -1)
  ( 0  0  1)  (-1 -1 -1)  ( 1  0  0)  (-1 -1 -1)  ( 1  0  0)  ( 0  0  1)

  ( 0  0  1)  ( 0  0  1)  ( 0  0  1)  ( 0  0  1)  ( 0  0  1)  ( 0  0  1)
  ( 1  0  0)  ( 1  0  0)  ( 0  1  0)  ( 0  1  0)  (-1 -1 -1)  (-1 -1 -1)
  ( 0  1  0)  (-1 -1 -1)  ( 1  0  0)  (-1 -1 -1)  ( 1  0  0)  ( 0  1  0)

  ( 0  0 -1)  ( 0  0 -1)  ( 0  0 -1)  ( 0  0 -1)  ( 0  0 -1)  ( 0  0 -1)
  ( 1  1  1)  ( 1  1  1)  ( 0 -1  0)  ( 0 -1  0)  (-1  0  0)  (-1  0  0)
  ( 0 -1  0)  (-1  0  0)  ( 1  1  1)  (-1  0  0)  ( 1  1  1)  ( 0 -1  0)

  ( 0 -1  0)  ( 0 -1  0)  ( 0 -1  0)  ( 0 -1  0)  ( 0 -1  0)  ( 0 -1  0)
  ( 1  1  1)  ( 1  1  1)  ( 0  0 -1)  ( 0  0 -1)  (-1  0  0)  (-1  0  0)
  ( 0  0 -1)  (-1  0  0)  ( 1  1  1)  (-1  0  0)  ( 1  1  1)  ( 0  0 -1)

  (-1  0  0)  (-1  0  0)  (-1  0  0)  (-1  0  0)  (-1  0  0)  (-1  0  0)
  ( 1  1  1)  ( 1  1  1)  ( 0  0 -1)  ( 0  0 -1)  ( 0 -1  0)  ( 0 -1  0)
  ( 0  0 -1)  ( 0 -1  0)  ( 1  1  1)  ( 0 -1  0)  ( 1  1  1)  ( 0  0 -1)

  (-1 -1 -1)  (-1 -1 -1)  (-1 -1 -1)  (-1 -1 -1)  (-1 -1 -1)  (-1 -1 -1)
  ( 1  0  0)  ( 1  0  0)  ( 0  1  0)  ( 0  1  0)  ( 0  0  1)  ( 0  0  1)
  ( 0  1  0)  ( 0  0  1)  ( 1  0  0)  ( 0  0  1)  ( 1  0  0)  ( 0  1  0)

512 k-points: 8 x 8 x 8 Monkhorst-Pack grid
26 k-points in the irreducible part of the Brillouin zone
       k-points in crystal coordinates                weights
   0:     0.06250000    0.06250000   -0.06250000          6/512
   1:     0.18750000   -0.06250000   -0.06250000          8/512
   2:     0.18750000    0.06250000   -0.06250000         24/512
   3:     0.18750000    0.18750000   -0.18750000          6/512
   4:     0.31250000   -0.06250000   -0.06250000         24/512
   5:     0.31250000    0.06250000   -0.18750000         24/512
   6:     0.31250000    0.06250000   -0.06250000         24/512
   7:     0.31250000    0.18750000   -0.18750000         24/512
   8:     0.31250000    0.31250000   -0.31250000          6/512
   9:     0.31250000    0.31250000    0.18750000         12/512
          ...
  25:     0.43750000    0.43750000    0.43750000          8/512

Wave functions: Plane wave expansion
  Cutoff energy: 400.000 eV
  Number of coefficients (min, max): 274, 301
  Using FFTW library
  Eigensolver: None  MatrixOperator buffer_size: default value or 
                              see value of nblock in input file
Diagonalizer layout: Serial LAPACKOrthonormalizer layout: Serial LAPACK 

Davidson(niter=1, smin=None, normalize=True) 

Densities:
  Coarse grid: 10*10*10 grid
  Fine grid: 20*20*20 grid
  Total Charge: 0.000000 

Density mixing:
  Method: separate
  Backend: pulay
  Linear mixing parameter: 0.01
  Mixing with 11 old densities
  Damping of long wave oscillations: 100 

Hamiltonian:
  XC and Coulomb potentials evaluated on a 20*20*20 grid
  Using the PBE Exchange-Correlation functional
 

Memory estimate:
  Process memory now: 926.24 MiB
  Calculator: 2.93 MiB
    Density: 0.75 MiB
      Arrays: 0.27 MiB
      Localized functions: 0.15 MiB
      Mixer: 0.34 MiB
    Hamiltonian: 0.20 MiB
      Arrays: 0.20 MiB
      XC: 0.00 MiB
      Poisson: 0.00 MiB
      vbar: 0.00 MiB
    Wavefunctions: 1.98 MiB
      Arrays psit_nG: 0.96 MiB
      Eigensolver: 0.04 MiB
      Projections: 0.04 MiB
      Projectors: 0.80 MiB
      Overlap op: 0.02 MiB
      PW-descriptor: 0.12 MiB

Total number of cores used: 1

Number of atoms: 1
Number of atomic orbitals: 4
Number of bands in calculation: 4
Bands to converge: occupied states only
Number of valence electrons: 6

... initialized

Initializing position-dependent things.

Density initialized from atomic densities
Creating initial wave functions:
  4 bands from LCAO basis set

                
                
                
       S        
                
                
                
                

Positions:
   0 S      0.000000    0.000000    0.000000

Unit cell:
           periodic     x           y           z      points  spacing
  1. axis:    yes   -1.579000    1.579000    1.579000    10     0.2233
  2. axis:    yes    1.579000   -1.579000    1.579000    10     0.2233
  3. axis:    yes    1.579000    1.579000   -1.579000    10     0.2233

  Lengths:   2.734908   2.734908   2.734908
  Angles:  109.471221 109.471221 109.471221

Effective grid spacing dv^(1/3) = 0.2507

                     log10-error:    total        iterations:
           time      wfs    density  energy       fermi  poisson  magmom
iter:   1  15:20:36  +0.68   +inf    -2.743452    4               -0.0000
iter:   2  15:20:36  +0.10   +inf    -2.844257    4               +0.0000
iter:   3  15:20:37  -0.85   +inf    -2.861406    4               -0.0000
iter:   4  15:20:37  -1.43  -1.65    -2.865027    3               -0.0000
iter:   5  15:20:38  -2.19  -1.66    -2.865667    4               +0.0000
iter:   6  15:20:39  -1.84  -1.69    -2.866597    30              -0.0000
iter:   7  15:20:39  -2.92  -2.22    -2.866264    4               -0.0000
iter:   8  15:20:40  -3.83  -2.39    -2.866336    3               -0.0000
iter:   9  15:20:40  -4.20  -2.35    -2.866217    3               -0.0000
iter:  10  15:20:41  -3.47  -2.42    -2.865932    4               +0.0000
iter:  11  15:20:41  -4.33  -2.99    -2.865920    3               -0.0000
iter:  12  15:20:42  -5.06  -3.29    -2.865921    3               +0.0000
iter:  13  15:20:43  -5.49  -3.30    -2.865923    3               -0.0000
iter:  14  15:20:43  -5.43  -3.42    -2.865923    3               +0.0000
iter:  15  15:20:44  -6.64  -4.46    -2.865923    2               -0.0000
iter:  16  15:20:44  -7.25  -4.41    -2.865923    1               +0.0000
iter:  17  15:20:45  -7.10  -4.40    -2.865923    2               -0.0001
iter:  18  15:20:45  -7.58  -4.38    -2.865923    2               +0.0000

Converged after 18 iterations.

Dipole moment: (-0.000000, -0.000000, 0.000000) |e|*Ang

Total magnetic moment: 0.000010
Local magnetic moments:
   0 S  0.000014

Energy contributions relative to reference atoms: (reference = -10857.619898)

Kinetic:         +1.716076
Potential:       -1.259658
External:        +0.000000
XC:              -3.398281
Entropy (-ST):   -0.004003
Local:           +0.077940
--------------------------
Free energy:     -2.867924
Extrapolated:    -2.865923

Spin contamination: 0.000011 electrons
Fermi level: 8.49752

Warning: Showing only first 2 kpts
                      Up                     Down
 Kpt  Band  Eigenvalues  Occupancy  Eigenvalues  Occupancy
  0     1     10.87901    0.00000     10.87902    0.00000
  0     2     11.11528    0.00000     11.11529    0.00000
  0     3     11.11663    0.00000     11.11664    0.00000

  1     1      9.04825    0.00000      9.04826    0.00000
  1     2     10.89594    0.00000     10.89596    0.00000
  1     3     10.89765    0.00000     10.89766    0.00000


Input parameters:
  convergence: {bands: all}
  eigensolver: {name: cg,
                niter: 5}
  fixdensity: True
  kpts: {npoints: 50,
         path: GHNGP}
  nbands: -4
  symmetry: off

Initialize ...

S-setup:
  name: Sulfur
  id: ca434db9faa07220b7a1d8cb6886b7a9
  Z: 16
  valence: 6
  core: 10
  charge: 0.0
  file: /usr/share/gpaw-setups/S.PBE.gz
  cutoffs: 0.76(comp), 1.77(filt), 1.66(core), lmax=2
  valence states:
                energy  radius
    3s(2.00)   -17.254   0.974
    3p(4.00)    -7.008   0.979
    *s           9.957   0.974
    *p          20.203   0.979
    *d           0.000   0.900

  Using partial waves for S as LCAO basis

Reference energy: -10857.619898

Spin-polarized calculation.
Magnetic moment:  0.000000

Occupation numbers:
  Fixed Fermi level
  Fermi-Dirac: width=0.0200 eV

Convergence criteria:
  Maximum total energy change: 0.0005 eV / electron
  Maximum integral of absolute density change: 0.0001 electrons
  Maximum integral of absolute eigenstate change: 4e-08 eV^2
  Maximum number of iterations: 1500

Symmetries present (total): 1

  ( 1  0  0)
  ( 0  1  0)
  ( 0  0  1)

50 k-points
50 k-points in the irreducible part of the Brillouin zone
       k-points in crystal coordinates                weights
   0:     0.00000000    0.00000000    0.00000000          1/50
   1:     0.03571429   -0.03571429    0.03571429          1/50
   2:     0.07142857   -0.07142857    0.07142857          1/50
   3:     0.10714286   -0.10714286    0.10714286          1/50
   4:     0.14285714   -0.14285714    0.14285714          1/50
   5:     0.17857143   -0.17857143    0.17857143          1/50
   6:     0.21428571   -0.21428571    0.21428571          1/50
   7:     0.25000000   -0.25000000    0.25000000          1/50
   8:     0.28571429   -0.28571429    0.28571429          1/50
   9:     0.32142857   -0.32142857    0.32142857          1/50
          ...
  49:     0.25000000    0.25000000    0.25000000          1/50

Wave functions: Plane wave expansion
  Cutoff energy: 400.000 eV
  Number of coefficients (min, max): 266, 321
  Using FFTW library
  Eigensolver: None  MatrixOperator buffer_size: default value or 
                              see value of nblock in input file
Diagonalizer layout: Serial LAPACKOrthonormalizer layout: Serial LAPACK 

CG(niter=5, rtol=3.0e-01) 

No density mixing

Memory estimate:
  Process memory now: 980.40 MiB
  Calculator: 6.36 MiB
    Density: 0.75 MiB
      Arrays: 0.27 MiB
      Localized functions: 0.15 MiB
      Mixer: 0.34 MiB
    Hamiltonian: 0.20 MiB
      Arrays: 0.20 MiB
      XC: 0.00 MiB
      Poisson: 0.00 MiB
      vbar: 0.00 MiB
    Wavefunctions: 5.40 MiB
      Arrays psit_nG: 3.43 MiB
      Eigensolver: 0.06 MiB
      Projections: 0.14 MiB
      Projectors: 1.54 MiB
      Overlap op: 0.04 MiB
      PW-descriptor: 0.20 MiB

Total number of cores used: 1

Number of atoms: 1
Number of atomic orbitals: 4
Number of bands in calculation: 7
Bands to converge: all
Number of valence electrons: 6

... initialized

Initializing position-dependent things.

Creating initial wave functions:
  4 bands from LCAO basis set
  3 bands from random numbers

                
                
                
       S        
                
                
                
                

Positions:
   0 S      0.000000    0.000000    0.000000

Unit cell:
           periodic     x           y           z      points  spacing
  1. axis:    yes   -1.579000    1.579000    1.579000    10     0.2233
  2. axis:    yes    1.579000   -1.579000    1.579000    10     0.2233
  3. axis:    yes    1.579000    1.579000   -1.579000    10     0.2233

  Lengths:   2.734908   2.734908   2.734908
  Angles:  109.471221 109.471221 109.471221

Effective grid spacing dv^(1/3) = 0.2507

                     log10-error:    total        iterations:
           time      wfs    density  energy       fermi  poisson  magmom
iter:   1  15:20:52  +3.93           -0.515994    26              +0.0009
iter:   2  15:20:54  +2.92           -0.805383    30              +0.0052
iter:   3  15:20:57  +1.99           -0.840818    31              +0.0013
iter:   4  15:21:00  +1.13           -0.844738    32              +0.0001
iter:   5  15:21:03  +0.36           -0.845078    32              +0.0000
iter:   6  15:21:06  -0.20           -0.845123    32              +0.0000
iter:   7  15:21:09  -0.62           -0.845131    29              +0.0000
iter:   8  15:21:12  -1.34           -0.845132    32              +0.0000
iter:   9  15:21:14  -1.82           -0.845132    32              +0.0000
iter:  10  15:21:17  -2.47           -0.845132    32              +0.0000
iter:  11  15:21:20  -2.84           -0.845132    30              +0.0000
iter:  12  15:21:22  -2.88           -0.845132    32              +0.0000
iter:  13  15:21:24  -3.34           -0.845132    30              +0.0000
iter:  14  15:21:25  -3.50           -0.845132    32              +0.0000
iter:  15  15:21:26  -3.74           -0.845132    32              +0.0000
iter:  16  15:21:27  -3.76           -0.845132    32              +0.0000
iter:  17  15:21:29  -4.03           -0.845132    32              +0.0000
iter:  18  15:21:30  -4.07           -0.845132    32              +0.0000
iter:  19  15:21:30  -4.23           -0.845132    32              +0.0000
iter:  20  15:21:31  -4.32           -0.845132    32              +0.0000
iter:  21  15:21:32  -4.56           -0.845132    32              +0.0000
iter:  22  15:21:33  -4.53           -0.845132    32              +0.0000
iter:  23  15:21:34  -4.77           -0.845132    32              +0.0000
iter:  24  15:21:35  -4.80           -0.845132    32              +0.0000
iter:  25  15:21:36  -4.98           -0.845132    32              +0.0000
iter:  26  15:21:37  -4.98           -0.845132    32              +0.0000
iter:  27  15:21:38  -5.13           -0.845132    32              +0.0000
iter:  28  15:21:38  -5.12           -0.845132    32              +0.0000
iter:  29  15:21:39  -5.24           -0.845132    32              +0.0000
iter:  30  15:21:40  -5.21           -0.845132    32              +0.0000
iter:  31  15:21:41  -5.32           -0.845132    32              +0.0000
iter:  32  15:21:41  -5.28           -0.845132    32              +0.0000
iter:  33  15:21:42  -5.38           -0.845132    32              +0.0000
iter:  34  15:21:43  -5.34           -0.845132    32              +0.0000
iter:  35  15:21:44  -5.42           -0.845132    32              +0.0000
iter:  36  15:21:45  -5.39           -0.845132    32              +0.0000
iter:  37  15:21:45  -5.47           -0.845132    32              +0.0000
iter:  38  15:21:46  -5.42           -0.845132    32              +0.0000
iter:  39  15:21:47  -5.52           -0.845132    32              +0.0000
iter:  40  15:21:48  -5.47           -0.845132    32              +0.0000
iter:  41  15:21:48  -5.54           -0.845132    32              +0.0000
iter:  42  15:21:49  -5.52           -0.845132    32              +0.0000
iter:  43  15:21:50  -5.60           -0.845132    32              +0.0000
iter:  44  15:21:50  -5.56           -0.845132    32              +0.0000
iter:  45  15:21:51  -5.63           -0.845132    32              +0.0000
iter:  46  15:21:52  -5.62           -0.845132    32              +0.0000
iter:  47  15:21:53  -5.71           -0.845132    32              +0.0000
iter:  48  15:21:53  -5.66           -0.845132    32              +0.0000
iter:  49  15:21:54  -5.71           -0.845132    32              +0.0000
iter:  50  15:21:55  -5.53           -0.845132    32              +0.0000
iter:  51  15:21:56  -5.80           -0.845132    32              +0.0000
iter:  52  15:21:56  -5.75           -0.845132    32              +0.0000
iter:  53  15:21:57  -5.54           -0.845132    32              +0.0000
iter:  54  15:21:58  -5.76           -0.845132    32              +0.0000
iter:  55  15:21:59  -5.90           -0.845132    32              +0.0000
iter:  56  15:21:59  -5.85           -0.845132    32              +0.0000
iter:  57  15:22:00  -5.90           -0.845132    32              +0.0000
iter:  58  15:22:01  -5.94           -0.845132    32              +0.0000
iter:  59  15:22:02  -6.01           -0.845132    32              +0.0000
iter:  60  15:22:02  -5.91           -0.845132    32              +0.0000
iter:  61  15:22:03  -6.00           -0.845132    32              +0.0000
iter:  62  15:22:04  -6.04           -0.845132    32              +0.0000
iter:  63  15:22:05  -6.00           -0.845132    32              +0.0000
iter:  64  15:22:05  -6.01           -0.845132    32              +0.0000
iter:  65  15:22:06  -6.19           -0.845132    32              +0.0000
iter:  66  15:22:07  -6.11           -0.845132    32              +0.0000
iter:  67  15:22:08  -6.23           -0.845132    32              +0.0000
iter:  68  15:22:08  -6.15           -0.845132    32              +0.0000
iter:  69  15:22:09  -6.20           -0.845132    32              +0.0000
iter:  70  15:22:10  -6.26           -0.845132    32              +0.0000
iter:  71  15:22:11  -6.34           -0.845132    32              +0.0000
iter:  72  15:22:11  -6.33           -0.845132    32              +0.0000
iter:  73  15:22:12  -5.94           -0.845132    32              +0.0000
iter:  74  15:22:13  -6.29           -0.845132    32              +0.0000
iter:  75  15:22:14  -6.39           -0.845132    32              +0.0000
iter:  76  15:22:14  -6.46           -0.845132    32              +0.0000
iter:  77  15:22:15  -6.48           -0.845132    32              +0.0000
iter:  78  15:22:16  -5.74           -0.845132    32              +0.0000
iter:  79  15:22:16  -6.56           -0.845132    32              +0.0000
iter:  80  15:22:17  -6.52           -0.845132    32              +0.0000
iter:  81  15:22:18  -6.39           -0.845132    32              +0.0000
iter:  82  15:22:19  -6.58           -0.845132    32              +0.0000
iter:  83  15:22:19  -6.56           -0.845132    32              +0.0000
iter:  84  15:22:20  -6.66           -0.845132    32              +0.0000
iter:  85  15:22:21  -6.57           -0.845132    32              +0.0000
iter:  86  15:22:22  -6.67           -0.845132    32              +0.0000
iter:  87  15:22:22  -6.70           -0.845132    32              +0.0000
iter:  88  15:22:23  -6.75           -0.845132    32              +0.0000
iter:  89  15:22:24  -6.74           -0.845132    32              +0.0000
iter:  90  15:22:25  -6.80           -0.845132    32              +0.0000
iter:  91  15:22:25  -6.66           -0.845132    32              +0.0000
iter:  92  15:22:26  -6.70           -0.845132    32              +0.0000
iter:  93  15:22:27  -6.82           -0.845132    32              +0.0000
iter:  94  15:22:27  -6.85           -0.845132    32              +0.0000
iter:  95  15:22:28  -6.78           -0.845132    32              +0.0000
iter:  96  15:22:29  -6.77           -0.845132    32              +0.0000
iter:  97  15:22:30  -6.82           -0.845132    32              +0.0000
iter:  98  15:22:30  -6.41           -0.845132    32              +0.0000
iter:  99  15:22:31  -5.62           -0.845132    32              +0.0000
iter: 100  15:22:32  -6.67           -0.845132    32              +0.0000
iter: 101  15:22:33  -6.88           -0.845132    32              +0.0000
iter: 102  15:22:33  -6.92           -0.845132    32              +0.0000
iter: 103  15:22:34  -6.76           -0.845132    32              +0.0000
iter: 104  15:22:35  -7.05           -0.845132    32              +0.0000
iter: 105  15:22:36  -6.93           -0.845132    32              +0.0000
iter: 106  15:22:36  -7.05           -0.845132    32              +0.0000
iter: 107  15:22:37  -6.47           -0.845132    32              +0.0000
iter: 108  15:22:38  -7.02           -0.845132    32              +0.0000
iter: 109  15:22:39  -7.00           -0.845132    32              +0.0000
iter: 110  15:22:39  -7.04           -0.845132    32              +0.0000
iter: 111  15:22:40  -6.80           -0.845132    32              +0.0000
iter: 112  15:22:41  -7.14           -0.845132    32              +0.0000
iter: 113  15:22:41  -7.03           -0.845132    32              +0.0000
iter: 114  15:22:42  -7.13           -0.845132    32              +0.0000
iter: 115  15:22:43  -6.88           -0.845132    32              +0.0000
iter: 116  15:22:44  -7.02           -0.845132    32              +0.0000
iter: 117  15:22:44  -6.99           -0.845132    32              +0.0000
iter: 118  15:22:45  -6.53           -0.845132    32              +0.0000
iter: 119  15:22:46  -6.63           -0.845132    32              +0.0000
iter: 120  15:22:47  -7.04           -0.845132    32              +0.0000
iter: 121  15:22:47  -7.09           -0.845132    32              +0.0000
iter: 122  15:22:48  -7.01           -0.845132    32              +0.0000
iter: 123  15:22:49  -6.90           -0.845132    32              +0.0000
iter: 124  15:22:50  -7.03           -0.845132    32              +0.0000
iter: 125  15:22:50  -7.09           -0.845132    32              +0.0000
iter: 126  15:22:51  -7.11           -0.845132    32              +0.0000
iter: 127  15:22:52  -5.86           -0.845132    32              +0.0000
iter: 128  15:22:53  -6.98           -0.845132    32              +0.0000
iter: 129  15:22:53  -7.10           -0.845132    32              +0.0000
iter: 130  15:22:54  -7.19           -0.845132    32              +0.0000
iter: 131  15:22:55  -6.91           -0.845132    32              +0.0000
iter: 132  15:22:55  -6.98           -0.845132    32              +0.0000
iter: 133  15:22:56  -7.02           -0.845132    32              +0.0000
iter: 134  15:22:57  -7.12           -0.845132    32              +0.0000
iter: 135  15:22:58  -6.71           -0.845132    32              +0.0000
iter: 136  15:22:58  -6.47           -0.845132    32              +0.0000
iter: 137  15:22:59  -5.64           -0.845132    32              +0.0000
iter: 138  15:23:00  -5.85           -0.845132    32              +0.0000
iter: 139  15:23:01  -6.41           -0.845132    32              +0.0000
iter: 140  15:23:01  -6.62           -0.845132    32              +0.0000
iter: 141  15:23:02  -6.98           -0.845132    32              +0.0000
iter: 142  15:23:03  -7.18           -0.845132    32              +0.0000
iter: 143  15:23:03  -6.70           -0.845132    32              +0.0000
iter: 144  15:23:04  -7.09           -0.845132    32              +0.0000
iter: 145  15:23:05  -6.92           -0.845132    32              +0.0000
iter: 146  15:23:06  -6.28           -0.845132    32              +0.0000
iter: 147  15:23:06  -6.97           -0.845132    32              +0.0000
iter: 148  15:23:07  -6.90           -0.845132    32              +0.0000
iter: 149  15:23:08  -6.89           -0.845132    32              +0.0000
iter: 150  15:23:09  -7.23           -0.845132    32              +0.0000
iter: 151  15:23:09  -6.47           -0.845132    32              +0.0000
iter: 152  15:23:10  -7.30           -0.845132    32              +0.0000
iter: 153  15:23:11  -7.05           -0.845132    32              +0.0000
iter: 154  15:23:11  -6.66           -0.845132    32              +0.0000
iter: 155  15:23:12  -6.98           -0.845132    32              +0.0000
iter: 156  15:23:13  -7.21           -0.845132    32              +0.0000
iter: 157  15:23:14  -6.90           -0.845132    32              +0.0000
iter: 158  15:23:14  -7.03           -0.845132    32              +0.0000
iter: 159  15:23:15  -7.04           -0.845132    32              +0.0000
iter: 160  15:23:16  -5.95           -0.845132    32              +0.0000
iter: 161  15:23:17  -6.51           -0.845132    32              +0.0000
iter: 162  15:23:17  -6.92           -0.845132    32              +0.0000
iter: 163  15:23:18  -6.97           -0.845132    32              +0.0000
iter: 164  15:23:19  -6.97           -0.845132    32              +0.0000
iter: 165  15:23:19  -6.21           -0.845132    32              +0.0000
iter: 166  15:23:20  -6.97           -0.845132    32              +0.0000
iter: 167  15:23:21  -6.63           -0.845132    32              +0.0000
iter: 168  15:23:22  -7.10           -0.845132    32              +0.0000
iter: 169  15:23:22  -7.07           -0.845132    32              +0.0000
iter: 170  15:23:23  -7.25           -0.845132    32              +0.0000
iter: 171  15:23:24  -6.82           -0.845132    32              +0.0000
iter: 172  15:23:24  -6.94           -0.845132    32              +0.0000
iter: 173  15:23:25  -7.05           -0.845132    32              +0.0000
iter: 174  15:23:26  -6.85           -0.845132    32              +0.0000
iter: 175  15:23:27  -7.02           -0.845132    32              +0.0000
iter: 176  15:23:27  -6.80           -0.845132    32              +0.0000
iter: 177  15:23:28  -6.90           -0.845132    32              +0.0000
iter: 178  15:23:29  -7.09           -0.845132    32              +0.0000
iter: 179  15:23:30  -6.27           -0.845132    32              +0.0000
iter: 180  15:23:30  -7.05           -0.845132    32              +0.0000
iter: 181  15:23:31  -6.92           -0.845132    32              +0.0000
iter: 182  15:23:32  -7.17           -0.845132    32              +0.0000
iter: 183  15:23:32  -7.15           -0.845132    32              +0.0000
iter: 184  15:23:33  -6.99           -0.845132    32              +0.0000
iter: 185  15:23:34  -7.02           -0.845132    32              +0.0000
iter: 186  15:23:35  -7.23           -0.845132    32              +0.0000
iter: 187  15:23:35  -6.98           -0.845132    32              +0.0000
iter: 188  15:23:36  -7.25           -0.845132    32              +0.0000
iter: 189  15:23:37  -6.59           -0.845132    32              +0.0000
iter: 190  15:23:38  -6.65           -0.845132    32              +0.0000
iter: 191  15:23:38  -7.09           -0.845132    32              +0.0000
iter: 192  15:23:39  -7.25           -0.845132    32              +0.0000
iter: 193  15:23:40  -6.85           -0.845132    32              +0.0000
iter: 194  15:23:40  -7.06           -0.845132    32              +0.0000
iter: 195  15:23:41  -6.69           -0.845132    32              +0.0000
iter: 196  15:23:42  -7.26           -0.845132    32              +0.0000
iter: 197  15:23:43  -7.06           -0.845132    32              +0.0000
iter: 198  15:23:43  -7.12           -0.845132    32              +0.0000
iter: 199  15:23:44  -7.14           -0.845132    32              +0.0000
iter: 200  15:23:45  -7.06           -0.845132    32              +0.0000
iter: 201  15:23:46  -6.99           -0.845132    32              +0.0000
iter: 202  15:23:46  -7.25           -0.845132    32              +0.0000
iter: 203  15:23:47  -7.12           -0.845132    32              +0.0000
iter: 204  15:23:48  -6.87           -0.845132    32              +0.0000
iter: 205  15:23:48  -7.06           -0.845132    32              +0.0000
iter: 206  15:23:49  -7.13           -0.845132    32              +0.0000
iter: 207  15:23:50  -6.69           -0.845132    32              +0.0000
iter: 208  15:23:51  -6.58           -0.845132    32              +0.0000
iter: 209  15:23:51  -6.98           -0.845132    32              +0.0000
iter: 210  15:23:52  -6.88           -0.845132    32              +0.0000
iter: 211  15:23:53  -6.93           -0.845132    32              +0.0000
iter: 212  15:23:53  -7.07           -0.845132    32              +0.0000
iter: 213  15:23:54  -7.03           -0.845132    32              +0.0000
iter: 214  15:23:55  -7.16           -0.845132    32              +0.0000
iter: 215  15:23:56  -7.05           -0.845132    32              +0.0000
iter: 216  15:23:56  -6.68           -0.845132    32              +0.0000
iter: 217  15:23:57  -7.12           -0.845132    32              +0.0000
iter: 218  15:23:58  -6.49           -0.845132    32              +0.0000
iter: 219  15:23:58  -6.52           -0.845132    32              +0.0000
iter: 220  15:23:59  -7.09           -0.845132    32              +0.0000
iter: 221  15:24:00  -7.13           -0.845132    32              +0.0000
iter: 222  15:24:01  -7.27           -0.845132    32              +0.0000
iter: 223  15:24:01  -7.06           -0.845132    32              +0.0000
iter: 224  15:24:02  -7.27           -0.845132    32              +0.0000
iter: 225  15:24:03  -7.14           -0.845132    32              +0.0000
iter: 226  15:24:04  -7.32           -0.845132    32              +0.0000
iter: 227  15:24:04  -7.03           -0.845132    32              +0.0000
iter: 228  15:24:05  -7.26           -0.845132    32              +0.0000
iter: 229  15:24:06  -6.54           -0.845132    32              +0.0000
iter: 230  15:24:06  -7.14           -0.845132    32              +0.0000
iter: 231  15:24:07  -7.06           -0.845132    32              +0.0000
iter: 232  15:24:08  -7.20           -0.845132    32              +0.0000
iter: 233  15:24:08  -7.06           -0.845132    32              +0.0000
iter: 234  15:24:09  -7.29           -0.845132    32              +0.0000
iter: 235  15:24:10  -7.03           -0.845132    32              +0.0000
iter: 236  15:24:11  -7.30           -0.845132    32              +0.0000
iter: 237  15:24:11  -7.05           -0.845132    32              +0.0000
iter: 238  15:24:12  -7.22           -0.845132    32              +0.0000
iter: 239  15:24:13  -7.11           -0.845132    32              +0.0000
iter: 240  15:24:13  -7.34           -0.845132    32              +0.0000
iter: 241  15:24:14  -7.18           -0.845132    32              +0.0000
iter: 242  15:24:15  -7.32           -0.845132    32              +0.0000
iter: 243  15:24:16  -7.07           -0.845132    32              +0.0000
iter: 244  15:24:16  -7.15           -0.845132    32              +0.0000
iter: 245  15:24:17  -7.12           -0.845132    32              +0.0000
iter: 246  15:24:18  -6.80           -0.845132    32              +0.0000
iter: 247  15:24:19  -6.95           -0.845132    32              +0.0000
iter: 248  15:24:19  -7.22           -0.845132    32              +0.0000
iter: 249  15:24:20  -7.17           -0.845132    32              +0.0000
iter: 250  15:24:21  -7.15           -0.845132    32              +0.0000
iter: 251  15:24:21  -7.02           -0.845132    32              +0.0000
iter: 252  15:24:22  -6.10           -0.845132    32              +0.0000
iter: 253  15:24:23  -6.65           -0.845132    32              +0.0000
iter: 254  15:24:24  -6.98           -0.845132    32              +0.0000
iter: 255  15:24:24  -6.59           -0.845132    32              +0.0000
iter: 256  15:24:25  -7.07           -0.845132    32              +0.0000
iter: 257  15:24:26  -6.89           -0.845132    32              +0.0000
iter: 258  15:24:26  -7.03           -0.845132    32              +0.0000
iter: 259  15:24:27  -7.15           -0.845132    32              +0.0000
iter: 260  15:24:28  -7.17           -0.845132    32              +0.0000
iter: 261  15:24:29  -7.15           -0.845132    32              +0.0000
iter: 262  15:24:29  -7.30           -0.845132    32              +0.0000
iter: 263  15:24:30  -7.11           -0.845132    32              +0.0000
iter: 264  15:24:31  -7.16           -0.845132    32              +0.0000
iter: 265  15:24:31  -7.16           -0.845132    32              +0.0000
iter: 266  15:24:32  -7.25           -0.845132    32              +0.0000
iter: 267  15:24:33  -7.13           -0.845132    32              +0.0000
iter: 268  15:24:34  -7.17           -0.845132    32              +0.0000
iter: 269  15:24:34  -6.96           -0.845132    32              +0.0000
iter: 270  15:24:35  -7.14           -0.845132    32              +0.0000
iter: 271  15:24:36  -7.03           -0.845132    32              +0.0000
iter: 272  15:24:36  -6.83           -0.845132    32              +0.0000
iter: 273  15:24:37  -7.10           -0.845132    32              +0.0000
iter: 274  15:24:38  -7.07           -0.845132    32              +0.0000
iter: 275  15:24:39  -5.88           -0.845132    32              +0.0000
iter: 276  15:24:39  -7.09           -0.845132    32              +0.0000
iter: 277  15:24:40  -7.20           -0.845132    32              +0.0000
iter: 278  15:24:41  -7.14           -0.845132    32              +0.0000
iter: 279  15:24:41  -6.93           -0.845132    32              +0.0000
iter: 280  15:24:42  -7.21           -0.845132    32              +0.0000
iter: 281  15:24:43  -6.47           -0.845132    32              +0.0000
iter: 282  15:24:44  -6.99           -0.845132    32              +0.0000
iter: 283  15:24:44  -7.11           -0.845132    32              +0.0000
iter: 284  15:24:45  -7.21           -0.845132    32              +0.0000
iter: 285  15:24:46  -6.96           -0.845132    32              +0.0000
iter: 286  15:24:46  -7.27           -0.845132    32              +0.0000
iter: 287  15:24:47  -6.99           -0.845132    32              +0.0000
iter: 288  15:24:48  -7.17           -0.845132    32              +0.0000
iter: 289  15:24:49  -7.00           -0.845132    32              +0.0000
iter: 290  15:24:49  -7.19           -0.845132    32              +0.0000
iter: 291  15:24:50  -7.06           -0.845132    32              +0.0000
iter: 292  15:24:51  -7.15           -0.845132    32              +0.0000
iter: 293  15:24:51  -7.08           -0.845132    32              +0.0000
iter: 294  15:24:52  -7.26           -0.845132    32              +0.0000
iter: 295  15:24:53  -7.02           -0.845132    32              +0.0000
iter: 296  15:24:54  -7.35           -0.845132    32              +0.0000
iter: 297  15:24:54  -7.06           -0.845132    32              +0.0000
iter: 298  15:24:55  -7.13           -0.845132    32              +0.0000
iter: 299  15:24:56  -7.23           -0.845132    32              +0.0000
iter: 300  15:24:57  -6.83           -0.845132    32              +0.0000
iter: 301  15:24:57  -6.92           -0.845132    32              +0.0000
iter: 302  15:24:58  -7.30           -0.845132    32              +0.0000
iter: 303  15:24:59  -7.00           -0.845132    32              +0.0000
iter: 304  15:24:59  -7.11           -0.845132    32              +0.0000
iter: 305  15:25:00  -6.99           -0.845132    32              +0.0000
iter: 306  15:25:01  -7.24           -0.845132    32              +0.0000
iter: 307  15:25:02  -6.63           -0.845132    32              +0.0000
iter: 308  15:25:02  -7.10           -0.845132    32              +0.0000
iter: 309  15:25:03  -6.97           -0.845132    32              +0.0000
iter: 310  15:25:04  -6.36           -0.845132    32              +0.0000
iter: 311  15:25:05  -6.89           -0.845132    32              +0.0000
iter: 312  15:25:05  -7.27           -0.845132    32              +0.0000
iter: 313  15:25:06  -6.86           -0.845132    32              +0.0000
iter: 314  15:25:07  -7.20           -0.845132    32              +0.0000
iter: 315  15:25:07  -7.18           -0.845132    32              +0.0000
iter: 316  15:25:08  -7.19           -0.845132    32              +0.0000
iter: 317  15:25:09  -6.76           -0.845132    32              +0.0000
iter: 318  15:25:10  -7.21           -0.845132    32              +0.0000
iter: 319  15:25:10  -6.70           -0.845132    32              +0.0000
iter: 320  15:25:11  -7.20           -0.845132    32              +0.0000
iter: 321  15:25:12  -6.72           -0.845132    32              +0.0000
iter: 322  15:25:12  -7.18           -0.845132    32              +0.0000
iter: 323  15:25:13  -6.89           -0.845132    32              +0.0000
iter: 324  15:25:14  -7.30           -0.845132    32              +0.0000
iter: 325  15:25:15  -7.10           -0.845132    32              +0.0000
iter: 326  15:25:15  -7.22           -0.845132    32              +0.0000
iter: 327  15:25:16  -7.16           -0.845132    32              +0.0000
iter: 328  15:25:17  -7.31           -0.845132    32              +0.0000
iter: 329  15:25:17  -7.00           -0.845132    32              +0.0000
iter: 330  15:25:18  -7.15           -0.845132    32              +0.0000
iter: 331  15:25:19  -7.22           -0.845132    32              +0.0000
iter: 332  15:25:20  -7.07           -0.845132    32              +0.0000
iter: 333  15:25:20  -6.89           -0.845132    32              +0.0000
iter: 334  15:25:21  -7.20           -0.845132    32              +0.0000
iter: 335  15:25:22  -7.05           -0.845132    32              +0.0000
iter: 336  15:25:23  -6.99           -0.845132    32              +0.0000
iter: 337  15:25:23  -7.19           -0.845132    32              +0.0000
iter: 338  15:25:24  -6.75           -0.845132    32              +0.0000
iter: 339  15:25:25  -6.79           -0.845132    32              +0.0000
iter: 340  15:25:25  -7.01           -0.845132    32              +0.0000
iter: 341  15:25:26  -7.14           -0.845132    32              +0.0000
iter: 342  15:25:27  -7.11           -0.845132    32              +0.0000
iter: 343  15:25:28  -7.21           -0.845132    32              +0.0000
iter: 344  15:25:28  -7.28           -0.845132    32              +0.0000
iter: 345  15:25:29  -7.21           -0.845132    32              +0.0000
iter: 346  15:25:30  -7.27           -0.845132    32              +0.0000
iter: 347  15:25:30  -7.07           -0.845132    32              +0.0000
iter: 348  15:25:31  -7.05           -0.845132    32              +0.0000
iter: 349  15:25:32  -7.16           -0.845132    32              +0.0000
iter: 350  15:25:33  -7.26           -0.845132    32              +0.0000
iter: 351  15:25:33  -7.06           -0.845132    32              +0.0000
iter: 352  15:25:34  -7.32           -0.845132    32              +0.0000
iter: 353  15:25:35  -7.19           -0.845132    32              +0.0000
iter: 354  15:25:36  -7.22           -0.845132    32              +0.0000
iter: 355  15:25:36  -7.03           -0.845132    32              +0.0000
iter: 356  15:25:37  -7.26           -0.845132    32              +0.0000
iter: 357  15:25:38  -7.10           -0.845132    32              +0.0000
iter: 358  15:25:38  -6.80           -0.845132    32              +0.0000
iter: 359  15:25:39  -7.00           -0.845132    32              +0.0000
iter: 360  15:25:40  -7.25           -0.845132    32              +0.0000
iter: 361  15:25:41  -7.11           -0.845132    32              +0.0000
iter: 362  15:25:41  -7.31           -0.845132    32              +0.0000
iter: 363  15:25:42  -7.00           -0.845132    32              +0.0000
iter: 364  15:25:43  -7.30           -0.845132    32              +0.0000
iter: 365  15:25:44  -7.13           -0.845132    32              +0.0000
iter: 366  15:25:44  -7.34           -0.845132    32              +0.0000
iter: 367  15:25:45  -6.97           -0.845132    32              +0.0000
iter: 368  15:25:46  -7.12           -0.845132    32              +0.0000
iter: 369  15:25:47  -7.07           -0.845132    32              +0.0000
iter: 370  15:25:47  -7.28           -0.845132    32              +0.0000
iter: 371  15:25:48  -7.02           -0.845132    32              +0.0000
iter: 372  15:25:49  -6.90           -0.845132    32              +0.0000
iter: 373  15:25:50  -7.18           -0.845132    32              +0.0000
iter: 374  15:25:50  -7.08           -0.845132    32              +0.0000
iter: 375  15:25:51  -6.96           -0.845132    32              +0.0000
iter: 376  15:25:52  -7.35           -0.845132    32              +0.0000
iter: 377  15:25:52  -6.74           -0.845132    32              +0.0000
iter: 378  15:25:53  -6.44           -0.845132    32              +0.0000
iter: 379  15:25:54  -6.92           -0.845132    32              +0.0000
iter: 380  15:25:55  -6.94           -0.845132    32              +0.0000
iter: 381  15:25:55  -7.18           -0.845132    32              +0.0000
iter: 382  15:25:56  -7.25           -0.845132    32              +0.0000
iter: 383  15:25:57  -6.95           -0.845132    32              +0.0000
iter: 384  15:25:57  -7.18           -0.845132    32              +0.0000
iter: 385  15:25:58  -7.16           -0.845132    32              +0.0000
iter: 386  15:25:59  -7.11           -0.845132    32              +0.0000
iter: 387  15:26:00  -6.71           -0.845132    32              +0.0000
iter: 388  15:26:00  -7.26           -0.845132    32              +0.0000
iter: 389  15:26:01  -7.16           -0.845132    32              +0.0000
iter: 390  15:26:02  -7.20           -0.845132    32              +0.0000
iter: 391  15:26:03  -6.81           -0.845132    32              +0.0000
iter: 392  15:26:03  -7.27           -0.845132    32              +0.0000
iter: 393  15:26:04  -7.15           -0.845132    32              +0.0000
iter: 394  15:26:05  -7.33           -0.845132    32              +0.0000
iter: 395  15:26:05  -7.00           -0.845132    32              +0.0000
iter: 396  15:26:06  -7.33           -0.845132    32              +0.0000
iter: 397  15:26:07  -7.18           -0.845132    32              +0.0000
iter: 398  15:26:08  -7.29           -0.845132    32              +0.0000
iter: 399  15:26:09  -7.02           -0.845132    32              +0.0000
iter: 400  15:26:09  -7.32           -0.845132    32              +0.0000
iter: 401  15:26:10  -7.07           -0.845132    32              +0.0000
iter: 402  15:26:11  -7.34           -0.845132    32              +0.0000
iter: 403  15:26:12  -6.99           -0.845132    32              +0.0000
iter: 404  15:26:12  -7.33           -0.845132    32              +0.0000
iter: 405  15:26:13  -7.10           -0.845132    32              +0.0000
iter: 406  15:26:14  -7.29           -0.845132    32              +0.0000
iter: 407  15:26:14  -6.28           -0.845132    32              +0.0000
iter: 408  15:26:15  -7.35           -0.845132    32              +0.0000
iter: 409  15:26:16  -7.15           -0.845132    32              +0.0000
iter: 410  15:26:17  -7.19           -0.845132    32              +0.0000
iter: 411  15:26:17  -7.13           -0.845132    32              +0.0000
iter: 412  15:26:18  -7.24           -0.845132    32              +0.0000
iter: 413  15:26:19  -7.15           -0.845132    32              +0.0000
iter: 414  15:26:19  -7.20           -0.845132    32              +0.0000
iter: 415  15:26:20  -7.04           -0.845132    32              +0.0000
iter: 416  15:26:21  -7.35           -0.845132    32              +0.0000
iter: 417  15:26:22  -6.96           -0.845132    32              +0.0000
iter: 418  15:26:22  -7.33           -0.845132    32              +0.0000
iter: 419  15:26:23  -7.12           -0.845132    32              +0.0000
iter: 420  15:26:24  -7.22           -0.845132    32              +0.0000
iter: 421  15:26:24  -6.95           -0.845132    32              +0.0000
iter: 422  15:26:25  -7.28           -0.845132    32              +0.0000
iter: 423  15:26:26  -7.22           -0.845132    32              +0.0000
iter: 424  15:26:27  -7.33           -0.845132    32              +0.0000
iter: 425  15:26:27  -7.22           -0.845132    32              +0.0000
iter: 426  15:26:28  -7.21           -0.845132    32              +0.0000
iter: 427  15:26:29  -7.18           -0.845132    32              +0.0000
iter: 428  15:26:30  -6.97           -0.845132    32              +0.0000
iter: 429  15:26:30  -6.95           -0.845132    32              +0.0000
iter: 430  15:26:31  -7.25           -0.845132    32              +0.0000
iter: 431  15:26:32  -7.23           -0.845132    32              +0.0000
iter: 432  15:26:32  -7.02           -0.845132    32              +0.0000
iter: 433  15:26:33  -7.28           -0.845132    32              +0.0000
iter: 434  15:26:34  -7.13           -0.845132    32              +0.0000
iter: 435  15:26:35  -6.99           -0.845132    32              +0.0000
iter: 436  15:26:35  -7.15           -0.845132    32              +0.0000
iter: 437  15:26:36  -7.10           -0.845132    32              +0.0000
iter: 438  15:26:37  -7.23           -0.845132    32              +0.0000
iter: 439  15:26:37  -7.19           -0.845132    32              +0.0000
iter: 440  15:26:38  -7.21           -0.845132    32              +0.0000
iter: 441  15:26:39  -7.16           -0.845132    32              +0.0000
iter: 442  15:26:40  -7.32           -0.845132    32              +0.0000
iter: 443  15:26:41  -7.13           -0.845132    32              +0.0000
iter: 444  15:26:41  -7.00           -0.845132    32              +0.0000
iter: 445  15:26:42  -7.23           -0.845132    32              +0.0000
iter: 446  15:26:43  -7.29           -0.845132    32              +0.0000
iter: 447  15:26:44  -7.24           -0.845132    32              +0.0000
iter: 448  15:26:44  -6.95           -0.845132    32              +0.0000
iter: 449  15:26:45  -7.28           -0.845132    32              +0.0000
iter: 450  15:26:46  -7.29           -0.845132    32              +0.0000
iter: 451  15:26:47  -7.22           -0.845132    32              +0.0000
iter: 452  15:26:47  -7.28           -0.845132    32              +0.0000
iter: 453  15:26:48  -7.16           -0.845132    32              +0.0000
iter: 454  15:26:49  -7.12           -0.845132    32              +0.0000
iter: 455  15:26:49  -6.77           -0.845132    32              +0.0000
iter: 456  15:26:50  -7.29           -0.845132    32              +0.0000
iter: 457  15:26:51  -7.24           -0.845132    32              +0.0000
iter: 458  15:26:52  -7.06           -0.845132    32              +0.0000
iter: 459  15:26:52  -6.86           -0.845132    32              +0.0000
iter: 460  15:26:53  -7.13           -0.845132    32              +0.0000
iter: 461  15:26:54  -6.64           -0.845132    32              +0.0000
iter: 462  15:26:54  -7.19           -0.845132    32              +0.0000
iter: 463  15:26:55  -7.12           -0.845132    32              +0.0000
iter: 464  15:26:56  -7.10           -0.845132    32              +0.0000
iter: 465  15:26:57  -6.59           -0.845132    32              +0.0000
iter: 466  15:26:57  -6.17           -0.845132    32              +0.0000
iter: 467  15:26:58  -6.65           -0.845132    32              +0.0000
iter: 468  15:26:59  -6.99           -0.845132    32              +0.0000
iter: 469  15:26:59  -7.07           -0.845132    32              +0.0000
iter: 470  15:27:00  -7.23           -0.845132    32              +0.0000
iter: 471  15:27:01  -7.18           -0.845132    32              +0.0000
iter: 472  15:27:02  -6.81           -0.845132    32              +0.0000
iter: 473  15:27:02  -6.97           -0.845132    32              +0.0000
iter: 474  15:27:03  -7.06           -0.845132    32              +0.0000
iter: 475  15:27:04  -7.00           -0.845132    32              +0.0000
iter: 476  15:27:04  -7.11           -0.845132    32              +0.0000
iter: 477  15:27:05  -7.14           -0.845132    32              +0.0000
iter: 478  15:27:06  -7.21           -0.845132    32              +0.0000
iter: 479  15:27:07  -6.59           -0.845132    32              +0.0000
iter: 480  15:27:07  -6.64           -0.845132    32              +0.0000
iter: 481  15:27:08  -7.19           -0.845132    32              +0.0000
iter: 482  15:27:09  -7.16           -0.845132    32              +0.0000
iter: 483  15:27:09  -7.19           -0.845132    32              +0.0000
iter: 484  15:27:10  -6.92           -0.845132    32              +0.0000
iter: 485  15:27:11  -7.15           -0.845132    32              +0.0000
iter: 486  15:27:12  -7.22           -0.845132    32              +0.0000
iter: 487  15:27:12  -7.18           -0.845132    32              +0.0000
iter: 488  15:27:13  -7.13           -0.845132    32              +0.0000
iter: 489  15:27:14  -7.07           -0.845132    32              +0.0000
iter: 490  15:27:15  -7.20           -0.845132    32              +0.0000
iter: 491  15:27:15  -7.09           -0.845132    32              +0.0000
iter: 492  15:27:16  -7.36           -0.845132    32              +0.0000
iter: 493  15:27:17  -7.06           -0.845132    32              +0.0000
iter: 494  15:27:17  -7.25           -0.845132    32              +0.0000
iter: 495  15:27:18  -6.81           -0.845132    32              +0.0000
iter: 496  15:27:19  -7.36           -0.845132    32              +0.0000
iter: 497  15:27:20  -7.23           -0.845132    32              +0.0000
iter: 498  15:27:20  -5.95           -0.845132    32              +0.0000
iter: 499  15:27:21  -5.59           -0.845132    32              +0.0000
iter: 500  15:27:22  -6.93           -0.845132    32              +0.0000
iter: 501  15:27:22  -6.78           -0.845132    32              +0.0000
iter: 502  15:27:23  -7.31           -0.845132    32              +0.0000
iter: 503  15:27:24  -7.27           -0.845132    32              +0.0000
iter: 504  15:27:25  -7.14           -0.845132    32              +0.0000
iter: 505  15:27:25  -6.93           -0.845132    32              +0.0000
iter: 506  15:27:26  -7.26           -0.845132    32              +0.0000
iter: 507  15:27:27  -6.77           -0.845132    32              +0.0000
iter: 508  15:27:27  -7.15           -0.845132    32              +0.0000
iter: 509  15:27:28  -7.24           -0.845132    32              +0.0000
iter: 510  15:27:29  -7.29           -0.845132    32              +0.0000
iter: 511  15:27:30  -7.26           -0.845132    32              +0.0000
iter: 512  15:27:30  -6.59           -0.845132    32              +0.0000
iter: 513  15:27:31  -7.07           -0.845132    32              +0.0000
iter: 514  15:27:32  -7.31           -0.845132    32              +0.0000
iter: 515  15:27:33  -7.25           -0.845132    32              +0.0000
iter: 516  15:27:33  -7.07           -0.845132    32              +0.0000
iter: 517  15:27:34  -7.30           -0.845132    32              +0.0000
iter: 518  15:27:35  -7.21           -0.845132    32              +0.0000
iter: 519  15:27:35  -7.17           -0.845132    32              +0.0000
iter: 520  15:27:36  -7.35           -0.845132    32              +0.0000
iter: 521  15:27:37  -7.12           -0.845132    32              +0.0000
iter: 522  15:27:37  -7.31           -0.845132    32              +0.0000
iter: 523  15:27:38  -7.25           -0.845132    32              +0.0000
iter: 524  15:27:39  -6.98           -0.845132    32              +0.0000
iter: 525  15:27:40  -7.25           -0.845132    32              +0.0000
iter: 526  15:27:40  -6.91           -0.845132    32              +0.0000
iter: 527  15:27:41  -7.28           -0.845132    32              +0.0000
iter: 528  15:27:42  -7.33           -0.845132    32              +0.0000
iter: 529  15:27:43  -6.95           -0.845132    32              +0.0000
iter: 530  15:27:43  -6.84           -0.845132    32              +0.0000
iter: 531  15:27:44  -7.16           -0.845132    32              +0.0000
iter: 532  15:27:45  -7.33           -0.845132    32              +0.0000
iter: 533  15:27:45  -6.68           -0.845132    32              +0.0000
iter: 534  15:27:46  -6.76           -0.845132    32              +0.0000
iter: 535  15:27:47  -7.23           -0.845132    32              +0.0000
iter: 536  15:27:48  -7.04           -0.845132    32              +0.0000
iter: 537  15:27:48  -7.17           -0.845132    32              +0.0000
iter: 538  15:27:49  -6.87           -0.845132    32              +0.0000
iter: 539  15:27:50  -6.49           -0.845132    32              +0.0000
iter: 540  15:27:51  -7.22           -0.845132    32              +0.0000
iter: 541  15:27:51  -6.43           -0.845132    32              +0.0000
iter: 542  15:27:52  -6.67           -0.845132    32              +0.0000
iter: 543  15:27:53  -6.92           -0.845132    32              +0.0000
iter: 544  15:27:53  -6.89           -0.845132    32              +0.0000
iter: 545  15:27:54  -6.65           -0.845132    32              +0.0000
iter: 546  15:27:55  -7.18           -0.845132    32              +0.0000
iter: 547  15:27:56  -7.21           -0.845132    32              +0.0000
iter: 548  15:27:56  -7.18           -0.845132    32              +0.0000
iter: 549  15:27:57  -6.77           -0.845132    32              +0.0000
iter: 550  15:27:58  -7.31           -0.845132    32              +0.0000
iter: 551  15:27:58  -7.10           -0.845132    32              +0.0000
iter: 552  15:27:59  -7.28           -0.845132    32              +0.0000
iter: 553  15:28:00  -7.23           -0.845132    32              +0.0000
iter: 554  15:28:01  -7.33           -0.845132    32              +0.0000
iter: 555  15:28:01  -7.26           -0.845132    32              +0.0000
iter: 556  15:28:02  -7.31           -0.845132    32              +0.0000
iter: 557  15:28:03  -7.28           -0.845132    32              +0.0000
iter: 558  15:28:03  -7.32           -0.845132    32              +0.0000
iter: 559  15:28:04  -7.27           -0.845132    32              +0.0000
iter: 560  15:28:05  -7.23           -0.845132    32              +0.0000
iter: 561  15:28:06  -7.22           -0.845132    32              +0.0000
iter: 562  15:28:06  -7.36           -0.845132    32              +0.0000
iter: 563  15:28:07  -7.18           -0.845132    32              +0.0000
iter: 564  15:28:08  -7.32           -0.845132    32              +0.0000
iter: 565  15:28:08  -7.29           -0.845132    32              +0.0000
iter: 566  15:28:09  -7.22           -0.845132    32              +0.0000
iter: 567  15:28:10  -6.73           -0.845132    32              +0.0000
iter: 568  15:28:11  -7.19           -0.845132    32              +0.0000
iter: 569  15:28:11  -7.14           -0.845132    32              +0.0000
iter: 570  15:28:12  -7.01           -0.845132    32              +0.0000
iter: 571  15:28:13  -7.23           -0.845132    32              +0.0000
iter: 572  15:28:14  -7.31           -0.845132    32              +0.0000
iter: 573  15:28:14  -7.15           -0.845132    32              +0.0000
iter: 574  15:28:15  -7.30           -0.845132    32              +0.0000
iter: 575  15:28:16  -7.23           -0.845132    32              +0.0000
iter: 576  15:28:16  -7.01           -0.845132    32              +0.0000
iter: 577  15:28:17  -7.25           -0.845132    32              +0.0000
iter: 578  15:28:18  -7.21           -0.845132    32              +0.0000
iter: 579  15:28:19  -7.16           -0.845132    32              +0.0000
iter: 580  15:28:19  -7.28           -0.845132    32              +0.0000
iter: 581  15:28:20  -7.15           -0.845132    32              +0.0000
iter: 582  15:28:21  -7.34           -0.845132    32              +0.0000
iter: 583  15:28:21  -7.15           -0.845132    32              +0.0000
iter: 584  15:28:22  -7.11           -0.845132    32              +0.0000
iter: 585  15:28:23  -7.32           -0.845132    32              +0.0000
iter: 586  15:28:24  -7.27           -0.845132    32              +0.0000
iter: 587  15:28:24  -7.23           -0.845132    32              +0.0000
iter: 588  15:28:25  -7.39           -0.845132    32              +0.0000
iter: 589  15:28:26  -7.19           -0.845132    32              +0.0000
iter: 590  15:28:26  -7.16           -0.845132    32              +0.0000
iter: 591  15:28:27  -7.13           -0.845132    32              +0.0000
iter: 592  15:28:28  -7.38           -0.845132    32              +0.0000
iter: 593  15:28:29  -7.29           -0.845132    32              +0.0000
iter: 594  15:28:29  -7.34           -0.845132    32              +0.0000
iter: 595  15:28:30  -7.23           -0.845132    32              +0.0000
iter: 596  15:28:31  -7.26           -0.845132    32              +0.0000
iter: 597  15:28:31  -7.25           -0.845132    32              +0.0000
iter: 598  15:28:32  -6.66           -0.845132    32              +0.0000
iter: 599  15:28:33  -7.25           -0.845132    32              +0.0000
iter: 600  15:28:34  -7.36           -0.845132    32              +0.0000
iter: 601  15:28:34  -7.31           -0.845132    32              +0.0000
iter: 602  15:28:35  -7.31           -0.845132    32              +0.0000
iter: 603  15:28:36  -7.15           -0.845132    32              +0.0000
iter: 604  15:28:36  -7.39           -0.845132    32              +0.0000
iter: 605  15:28:37  -6.83           -0.845132    32              +0.0000
iter: 606  15:28:38  -7.30           -0.845132    32              +0.0000
iter: 607  15:28:39  -7.30           -0.845132    32              +0.0000
iter: 608  15:28:39  -7.39           -0.845132    32              +0.0000
iter: 609  15:28:40  -7.19           -0.845132    32              +0.0000
iter: 610  15:28:41  -7.38           -0.845132    32              +0.0000
iter: 611  15:28:41  -6.89           -0.845132    32              +0.0000
iter: 612  15:28:42  -7.34           -0.845132    32              +0.0000
iter: 613  15:28:43  -7.18           -0.845132    32              +0.0000
iter: 614  15:28:44  -7.35           -0.845132    32              +0.0000
iter: 615  15:28:44  -6.99           -0.845132    32              +0.0000
iter: 616  15:28:45  -7.23           -0.845132    32              +0.0000
iter: 617  15:28:46  -7.12           -0.845132    32              +0.0000
iter: 618  15:28:47  -7.40           -0.845132    32              +0.0000
iter: 619  15:28:47  -6.97           -0.845132    32              +0.0000
iter: 620  15:28:48  -7.37           -0.845132    32              +0.0000
iter: 621  15:28:49  -7.01           -0.845132    32              +0.0000
iter: 622  15:28:49  -7.33           -0.845132    32              +0.0000
iter: 623  15:28:50  -6.99           -0.845132    32              +0.0000
iter: 624  15:28:51  -7.07           -0.845132    32              +0.0000
iter: 625  15:28:52  -7.25           -0.845132    32              +0.0000
iter: 626  15:28:52  -6.78           -0.845132    32              +0.0000
iter: 627  15:28:53  -6.73           -0.845132    32              +0.0000
iter: 628  15:28:54  -7.30           -0.845132    32              +0.0000
iter: 629  15:28:54  -7.27           -0.845132    32              +0.0000
iter: 630  15:28:55  -7.29           -0.845132    32              +0.0000
iter: 631  15:28:56  -6.49           -0.845132    32              +0.0000
iter: 632  15:28:57  -6.74           -0.845132    32              +0.0000
iter: 633  15:28:57  -7.19           -0.845132    32              +0.0000
iter: 634  15:28:58  -7.37           -0.845132    32              +0.0000
iter: 635  15:28:59  -6.78           -0.845132    32              +0.0000
iter: 636  15:28:59  -7.41           -0.845132    32              +0.0000

Converged after 636 iterations.

Dipole moment: (-0.000000, -0.000000, 0.000000) |e|*Ang

Total magnetic moment: 0.000005
Local magnetic moments:
   0 S  0.000014

Energy contributions relative to reference atoms: (reference = -10857.619898)

Kinetic:         +3.735526
Potential:       -1.259653
External:        +0.000000
XC:              -3.398277
Entropy (-ST):   -0.001331
Local:           +0.077938
--------------------------
Free energy:     -0.845798
Extrapolated:    -0.845132

Spin contamination: 0.000011 electrons
Fixed Fermi level: 8.49752

Warning: Showing only first 2 kpts
                      Up                     Down
 Kpt  Band  Eigenvalues  Occupancy  Eigenvalues  Occupancy
  0     1     11.49852    0.00000     11.49853    0.00000
  0     2     11.50045    0.00000     11.50046    0.00000
  0     3     11.50045    0.00000     11.50046    0.00000
  0     4     20.35413    0.00000     20.35412    0.00000

  1     1     11.28587    0.00000     11.28589    0.00000
  1     2     11.37073    0.00000     11.37074    0.00000
  1     3     11.37203    0.00000     11.37205    0.00000
  1     4     20.36670    0.00000     20.36669    0.00000


Timing:                              incl.     excl.
-----------------------------------------------------------
Hamiltonian:                         0.266     0.001   0.0% |
 Atomic:                             0.212     0.002   0.0% |
  XC Correction:                     0.210     0.210   0.0% |
 Calculate atomic Hamiltonians:      0.002     0.002   0.0% |
 Communicate:                        0.000     0.000   0.0% |
 Initialize Hamiltonian:             0.000     0.000   0.0% |
 Poisson:                            0.000     0.000   0.0% |
 XC 3D grid:                         0.050     0.050   0.0% |
LCAO initialization:                 1.700     0.050   0.0% |
 LCAO eigensolver:                   0.909     0.014   0.0% |
  Calculate projections:             0.004     0.004   0.0% |
  DenseAtomicCorrection:             0.025     0.025   0.0% |
  Distribute overlap matrix:         0.005     0.005   0.0% |
  Orbital Layouts:                   0.025     0.025   0.0% |
  Potential matrix:                  0.124     0.124   0.0% |
  Sum over cells:                    0.712     0.712   0.1% |
 LCAO to grid:                       0.307     0.307   0.1% |
 Set positions (LCAO WFS):           0.434     0.001   0.0% |
  Basic WFS set positions:           0.002     0.002   0.0% |
  Basis functions set positions:     0.000     0.000   0.0% |
  TCI: Calculate S, T, P:            0.432     0.432   0.1% |
PWDescriptor:                        0.015     0.015   0.0% |
Redistribute:                        0.000     0.000   0.0% |
SCF-cycle:                         502.113   216.783  42.8% |----------------|
 CG:                               133.132   118.681  23.4% |--------|
  CG: orthonormalize:               14.451     8.442   1.7% ||
   CG: overlap:                      3.639     3.639   0.7% |
   CG: overlap2:                     2.369     2.369   0.5% |
 Davidson:                           3.787     2.365   0.5% |
  calc. matrices:                    0.925     0.925   0.2% |
  diagonalize:                       0.294     0.294   0.1% |
  rotate_psi:                        0.203     0.203   0.0% |
 Density:                            0.753     0.001   0.0% |
  Atomic density matrices:           0.081     0.081   0.0% |
  Mix:                               0.063     0.063   0.0% |
  Multipole moments:                 0.004     0.004   0.0% |
  Pseudo density:                    0.604     0.392   0.1% |
   Symmetrize density:               0.212     0.212   0.0% |
 Hamiltonian:                        3.203     0.008   0.0% |
  Atomic:                            2.730     0.014   0.0% |
   XC Correction:                    2.716     2.716   0.5% |
  Calculate atomic Hamiltonians:     0.027     0.027   0.0% |
  Communicate:                       0.000     0.000   0.0% |
  Poisson:                           0.003     0.003   0.0% |
  XC 3D grid:                        0.435     0.435   0.1% |
 Orthonormalize:                     0.132     0.011   0.0% |
  Band Layouts:                      0.008     0.003   0.0% |
   Inverse Cholesky:                 0.005     0.005   0.0% |
  calc_s_matrix:                     0.021     0.021   0.0% |
  projections:                       0.075     0.075   0.0% |
  rotate_psi:                        0.018     0.018   0.0% |
 Residuals:                         43.423    43.423   8.6% |--|
 Subspace diag:                    100.899     7.302   1.4% ||
  Band Layouts:                     13.944     2.091   0.4% |
   Diagonalize:                     10.375    10.375   2.0% ||
   Distribute results:               1.478     1.478   0.3% |
  calc_h_matrix:                    65.763    65.763  13.0% |----|
  rotate_psi:                       13.890    13.890   2.7% ||
Set symmetry:                        0.105     0.105   0.0% |
Other:                               2.296     2.296   0.5% |
-----------------------------------------------------------
Total:                                       506.495 100.0%

Date: Thu Feb 11 15:29:01 2021
element =  S
struct =  bcc
kpts =  (8,8,8)
element =  S
configuration =  [Ne] 3s2 3p4 3d0
valence =  ['3s', '3p', '3d']
occupations =  {'3s': 2, '3p': 4, '3d': 0}
nls =  3p
rNum =  600
lmax =  d
*******************************************
Starting confinement parameter optimization
Adjustable parameters and initial values:
  S_3d.r0 : 3.968425
  S_3p.r0 : 3.968425
  S_3s.r0 : 3.968425
  S_n.r0 : 5.952637
*******************************************

OPT_VAL: 3.9684248642575497   3.9684248642575497   3.9684248642575497   5.9526372963863246
VCONF:
  S_3d : PowerConfinement(r0=3.968425, s=2.000000)
  S_3p : PowerConfinement(r0=3.968425, s=2.000000)
  S_3s : PowerConfinement(r0=3.968425, s=2.000000)
  S_n : PowerConfinement(r0=5.952637, s=2.000000)
RESIDUAL: 0.0

OPT_VAL: 4.16842486425755   3.9684248642575497   3.9684248642575497   5.9526372963863246
VCONF:
  S_3d : PowerConfinement(r0=4.168425, s=2.000000)
  S_3p : PowerConfinement(r0=3.968425, s=2.000000)
  S_3s : PowerConfinement(r0=3.968425, s=2.000000)
  S_n : PowerConfinement(r0=5.952637, s=2.000000)
RESIDUAL: 0.0

OPT_VAL: 3.9684248642575497   4.16842486425755   3.9684248642575497   5.9526372963863246
VCONF:
  S_3d : PowerConfinement(r0=3.968425, s=2.000000)
  S_3p : PowerConfinement(r0=4.168425, s=2.000000)
  S_3s : PowerConfinement(r0=3.968425, s=2.000000)
  S_n : PowerConfinement(r0=5.952637, s=2.000000)
RESIDUAL: 0.0

OPT_VAL: 3.9684248642575497   3.9684248642575497   4.16842486425755   5.9526372963863246
VCONF:
  S_3d : PowerConfinement(r0=3.968425, s=2.000000)
  S_3p : PowerConfinement(r0=3.968425, s=2.000000)
  S_3s : PowerConfinement(r0=4.168425, s=2.000000)
  S_n : PowerConfinement(r0=5.952637, s=2.000000)
RESIDUAL: 0.0

OPT_VAL: 3.9684248642575497   3.9684248642575497   3.9684248642575497   6.152637296386325
VCONF:
  S_3d : PowerConfinement(r0=3.968425, s=2.000000)
  S_3p : PowerConfinement(r0=3.968425, s=2.000000)
  S_3s : PowerConfinement(r0=3.968425, s=2.000000)
  S_n : PowerConfinement(r0=6.152637, s=2.000000)
RESIDUAL: 0.0

OPT_VAL: 3.9934248642575496   3.9684248642575497   3.9684248642575497   5.9526372963863246
VCONF:
  S_3d : PowerConfinement(r0=3.993425, s=2.000000)
  S_3p : PowerConfinement(r0=3.968425, s=2.000000)
  S_3s : PowerConfinement(r0=3.968425, s=2.000000)
  S_n : PowerConfinement(r0=5.952637, s=2.000000)
RESIDUAL: 0.0

OPT_VAL: 3.9684248642575497   3.9934248642575496   3.9684248642575497   5.9526372963863246
VCONF:
  S_3d : PowerConfinement(r0=3.968425, s=2.000000)
  S_3p : PowerConfinement(r0=3.993425, s=2.000000)
  S_3s : PowerConfinement(r0=3.968425, s=2.000000)
  S_n : PowerConfinement(r0=5.952637, s=2.000000)
RESIDUAL: 0.0

OPT_VAL: 3.9684248642575497   3.9684248642575497   3.9934248642575496   5.9526372963863246
VCONF:
  S_3d : PowerConfinement(r0=3.968425, s=2.000000)
  S_3p : PowerConfinement(r0=3.968425, s=2.000000)
  S_3s : PowerConfinement(r0=3.993425, s=2.000000)
  S_n : PowerConfinement(r0=5.952637, s=2.000000)
RESIDUAL: 0.0

OPT_VAL: 3.9684248642575497   3.9684248642575497   3.9684248642575497   5.977637296386325
VCONF:
  S_3d : PowerConfinement(r0=3.968425, s=2.000000)
  S_3p : PowerConfinement(r0=3.968425, s=2.000000)
  S_3s : PowerConfinement(r0=3.968425, s=2.000000)
  S_n : PowerConfinement(r0=5.977637, s=2.000000)
RESIDUAL: 0.0

OPT_VAL: 3.9734248642575496   3.9684248642575497   3.9684248642575497   5.9526372963863246
VCONF:
  S_3d : PowerConfinement(r0=3.973425, s=2.000000)
  S_3p : PowerConfinement(r0=3.968425, s=2.000000)
  S_3s : PowerConfinement(r0=3.968425, s=2.000000)
  S_n : PowerConfinement(r0=5.952637, s=2.000000)
RESIDUAL: 0.0

OPT_VAL: 3.9684248642575497   3.9734248642575496   3.9684248642575497   5.9526372963863246
VCONF:
  S_3d : PowerConfinement(r0=3.968425, s=2.000000)
  S_3p : PowerConfinement(r0=3.973425, s=2.000000)
  S_3s : PowerConfinement(r0=3.968425, s=2.000000)
  S_n : PowerConfinement(r0=5.952637, s=2.000000)
RESIDUAL: 0.0

OPT_VAL: 3.9684248642575497   3.9684248642575497   3.9734248642575496   5.9526372963863246
VCONF:
  S_3d : PowerConfinement(r0=3.968425, s=2.000000)
  S_3p : PowerConfinement(r0=3.968425, s=2.000000)
  S_3s : PowerConfinement(r0=3.973425, s=2.000000)
  S_n : PowerConfinement(r0=5.952637, s=2.000000)
RESIDUAL: 0.0

OPT_VAL: 3.9684248642575497   3.9684248642575497   3.9684248642575497   5.957637296386324
VCONF:
  S_3d : PowerConfinement(r0=3.968425, s=2.000000)
  S_3p : PowerConfinement(r0=3.968425, s=2.000000)
  S_3s : PowerConfinement(r0=3.968425, s=2.000000)
  S_n : PowerConfinement(r0=5.957637, s=2.000000)
RESIDUAL: 0.0

*******************************************
Optimization finished after 13 iterations
Adjustable parameters and final values:
  S_3d.r0 : 3.968425
  S_3p.r0 : 3.968425
  S_3s.r0 : 3.968425
  S_n.r0 : 5.952637
*******************************************

VCONF:
  S_3d : PowerConfinement(r0=3.968425, s=2.000000)
  S_3p : PowerConfinement(r0=3.968425, s=2.000000)
  S_3s : PowerConfinement(r0=3.968425, s=2.000000)
  S_n : PowerConfinement(r0=5.952637, s=2.000000)
