
     Program PWSCF v.6.0 (svn rev. 13079) starts on 25Feb2021 at 14:28: 5 

     This program is part of the open-source Quantum ESPRESSO suite
     for quantum simulation of materials; please cite
         "P. Giannozzi et al., J. Phys.:Condens. Matter 21 395502 (2009);
          URL http://www.quantum-espresso.org", 
     in publications or presentations arising from this work. More details at
     http://www.quantum-espresso.org/quote

     Parallel version (MPI), running on     1 processors
     Reading input from espresso.pwi
Warning: card &IONS ignored
Warning: card / ignored
Warning: card &CELL ignored
Warning: card / ignored

     Current dimensions of program PWSCF are:
     Max number of different atomic species (ntypx) = 10
     Max number of k-points (npk) =  40000
     Max angular momentum in pseudopotentials (lmaxx) =  3
     Message from routine input:
     WARNING: "startingwfc" set to atomic+random may spoil restart

     Atomic positions and unit cell read from directory:
     ./pwscf.save/


     IMPORTANT: XC functional enforced from input :
     Exchange-correlation      = PBE ( 1  4  3  4 0 0)
     Any further DFT definition will be discarded
     Please, verify this is what you really want


     Subspace diagonalization in iterative solution of the eigenvalue problem:
     a serial algorithm will be used


     G-vector sticks info
     --------------------
     sticks:   dense  smooth     PW     G-vecs:    dense   smooth      PW
     Sum         313     253     85                 3839     2733     531



     bravais-lattice index     =            0
     lattice parameter (alat)  =       4.8305  a.u.
     unit-cell volume          =      79.7006 (a.u.)^3
     number of atoms/cell      =            1
     number of atomic types    =            1
     number of electrons       =        19.00
     number of Kohn-Sham states=           14
     kinetic-energy cutoff     =      40.0000  Ry
     charge density cutoff     =     200.0000  Ry
     Exchange-correlation      = PBE ( 1  4  3  4 0 0)

     celldm(1)=   4.830501  celldm(2)=   0.000000  celldm(3)=   0.000000
     celldm(4)=   0.000000  celldm(5)=   0.000000  celldm(6)=   0.000000

     crystal axes: (cart. coord. in units of alat)
               a(1) = (   0.000000   0.707107   0.707107 )  
               a(2) = (   0.707107   0.000000   0.707107 )  
               a(3) = (   0.707107   0.707107   0.000000 )  

     reciprocal axes: (cart. coord. in units 2 pi/alat)
               b(1) = ( -0.707107  0.707107  0.707107 )  
               b(2) = (  0.707107 -0.707107  0.707107 )  
               b(3) = (  0.707107  0.707107 -0.707107 )  


     PseudoPot. # 1 for Cu read from file:
     /home/inukai/tango/tests/1element/qe_fit_v2_Cu/../pseudo/cu_pbe_v1.2.uspp.F.UPF
     MD5 check sum: 6e991ff952a84172a2a52a1c1e996048
     Pseudo is Ultrasoft + core correction, Zval = 19.0
     Generated by new atomic code, or converted to UPF format
     Using radial grid of  867 points,  6 beta functions with: 
                l(1) =   0
                l(2) =   0
                l(3) =   1
                l(4) =   1
                l(5) =   2
                l(6) =   2
     Q(r) pseudized with  8 coefficients,  rinner =    1.150   1.150   1.150
                                                       1.150   1.150

     atomic species   valence    mass     pseudopotential
        Cu            19.00    63.54600     Cu( 1.00)

     48 Sym. Ops., with inversion, found


                                    s                        frac. trans.

      isym =  1     identity                                     

 cryst.   s( 1) = (     1          0          0      )
                  (     0          1          0      )
                  (     0          0          1      )

 cart.    s( 1) = (  1.0000000  0.0000000  0.0000000 )
                  (  0.0000000  1.0000000  0.0000000 )
                  (  0.0000000  0.0000000  1.0000000 )


      isym =  2     180 deg rotation - cart. axis [0,0,1]        

 cryst.   s( 2) = (     0          1         -1      )
                  (     1          0         -1      )
                  (     0          0         -1      )

 cart.    s( 2) = ( -1.0000000  0.0000000  0.0000000 )
                  (  0.0000000 -1.0000000  0.0000000 )
                  (  0.0000000  0.0000000  1.0000000 )


      isym =  3     180 deg rotation - cart. axis [0,1,0]        

 cryst.   s( 3) = (     0         -1          1      )
                  (     0         -1          0      )
                  (     1         -1          0      )

 cart.    s( 3) = ( -1.0000000  0.0000000  0.0000000 )
                  (  0.0000000  1.0000000  0.0000000 )
                  (  0.0000000  0.0000000 -1.0000000 )


      isym =  4     180 deg rotation - cart. axis [1,0,0]        

 cryst.   s( 4) = (    -1          0          0      )
                  (    -1          0          1      )
                  (    -1          1          0      )

 cart.    s( 4) = (  1.0000000  0.0000000  0.0000000 )
                  (  0.0000000 -1.0000000  0.0000000 )
                  (  0.0000000  0.0000000 -1.0000000 )


      isym =  5     180 deg rotation - cart. axis [1,1,0]        

 cryst.   s( 5) = (    -1          0          1      )
                  (     0         -1          1      )
                  (     0          0          1      )

 cart.    s( 5) = (  0.0000000  1.0000000  0.0000000 )
                  (  1.0000000  0.0000000  0.0000000 )
                  (  0.0000000  0.0000000 -1.0000000 )


      isym =  6     180 deg rotation - cart. axis [1,-1,0]       

 cryst.   s( 6) = (     0         -1          0      )
                  (    -1          0          0      )
                  (     0          0         -1      )

 cart.    s( 6) = (  0.0000000 -1.0000000  0.0000000 )
                  ( -1.0000000  0.0000000  0.0000000 )
                  (  0.0000000  0.0000000 -1.0000000 )


      isym =  7      90 deg rotation - cart. axis [0,0,-1]       

 cryst.   s( 7) = (     0          1          0      )
                  (     0          1         -1      )
                  (    -1          1          0      )

 cart.    s( 7) = (  0.0000000  1.0000000  0.0000000 )
                  ( -1.0000000  0.0000000  0.0000000 )
                  (  0.0000000  0.0000000  1.0000000 )


      isym =  8      90 deg rotation - cart. axis [0,0,1]        

 cryst.   s( 8) = (     1          0         -1      )
                  (     1          0          0      )
                  (     1         -1          0      )

 cart.    s( 8) = (  0.0000000 -1.0000000  0.0000000 )
                  (  1.0000000  0.0000000  0.0000000 )
                  (  0.0000000  0.0000000  1.0000000 )


      isym =  9     180 deg rotation - cart. axis [1,0,1]        

 cryst.   s( 9) = (    -1          1          0      )
                  (     0          1          0      )
                  (     0          1         -1      )

 cart.    s( 9) = (  0.0000000  0.0000000  1.0000000 )
                  (  0.0000000 -1.0000000  0.0000000 )
                  (  1.0000000  0.0000000  0.0000000 )


      isym = 10     180 deg rotation - cart. axis [-1,0,1]       

 cryst.   s(10) = (     0          0         -1      )
                  (     0         -1          0      )
                  (    -1          0          0      )

 cart.    s(10) = (  0.0000000  0.0000000 -1.0000000 )
                  (  0.0000000 -1.0000000  0.0000000 )
                  ( -1.0000000  0.0000000  0.0000000 )


      isym = 11      90 deg rotation - cart. axis [0,1,0]        

 cryst.   s(11) = (     0          0          1      )
                  (    -1          0          1      )
                  (     0         -1          1      )

 cart.    s(11) = (  0.0000000  0.0000000  1.0000000 )
                  (  0.0000000  1.0000000  0.0000000 )
                  ( -1.0000000  0.0000000  0.0000000 )


      isym = 12      90 deg rotation - cart. axis [0,-1,0]       

 cryst.   s(12) = (     1         -1          0      )
                  (     1          0         -1      )
                  (     1          0          0      )

 cart.    s(12) = (  0.0000000  0.0000000 -1.0000000 )
                  (  0.0000000  1.0000000  0.0000000 )
                  (  1.0000000  0.0000000  0.0000000 )


      isym = 13     180 deg rotation - cart. axis [0,1,1]        

 cryst.   s(13) = (     1          0          0      )
                  (     1         -1          0      )
                  (     1          0         -1      )

 cart.    s(13) = ( -1.0000000  0.0000000  0.0000000 )
                  (  0.0000000  0.0000000  1.0000000 )
                  (  0.0000000  1.0000000  0.0000000 )


      isym = 14     180 deg rotation - cart. axis [0,1,-1]       

 cryst.   s(14) = (    -1          0          0      )
                  (     0          0         -1      )
                  (     0         -1          0      )

 cart.    s(14) = ( -1.0000000  0.0000000  0.0000000 )
                  (  0.0000000  0.0000000 -1.0000000 )
                  (  0.0000000 -1.0000000  0.0000000 )


      isym = 15      90 deg rotation - cart. axis [-1,0,0]       

 cryst.   s(15) = (     0         -1          1      )
                  (     0          0          1      )
                  (    -1          0          1      )

 cart.    s(15) = (  1.0000000  0.0000000  0.0000000 )
                  (  0.0000000  0.0000000  1.0000000 )
                  (  0.0000000 -1.0000000  0.0000000 )


      isym = 16      90 deg rotation - cart. axis [1,0,0]        

 cryst.   s(16) = (     0          1         -1      )
                  (    -1          1          0      )
                  (     0          1          0      )

 cart.    s(16) = (  1.0000000  0.0000000  0.0000000 )
                  (  0.0000000  0.0000000 -1.0000000 )
                  (  0.0000000  1.0000000  0.0000000 )


      isym = 17     120 deg rotation - cart. axis [-1,-1,-1]     

 cryst.   s(17) = (     0          0          1      )
                  (     1          0          0      )
                  (     0          1          0      )

 cart.    s(17) = (  0.0000000  1.0000000  0.0000000 )
                  (  0.0000000  0.0000000  1.0000000 )
                  (  1.0000000  0.0000000  0.0000000 )


      isym = 18     120 deg rotation - cart. axis [-1,1,1]       

 cryst.   s(18) = (     1         -1          0      )
                  (     0         -1          1      )
                  (     0         -1          0      )

 cart.    s(18) = (  0.0000000 -1.0000000  0.0000000 )
                  (  0.0000000  0.0000000  1.0000000 )
                  ( -1.0000000  0.0000000  0.0000000 )


      isym = 19     120 deg rotation - cart. axis [1,1,-1]       

 cryst.   s(19) = (    -1          1          0      )
                  (    -1          0          0      )
                  (    -1          0          1      )

 cart.    s(19) = (  0.0000000  1.0000000  0.0000000 )
                  (  0.0000000  0.0000000 -1.0000000 )
                  ( -1.0000000  0.0000000  0.0000000 )


      isym = 20     120 deg rotation - cart. axis [1,-1,1]       

 cryst.   s(20) = (     0          0         -1      )
                  (     0          1         -1      )
                  (     1          0         -1      )

 cart.    s(20) = (  0.0000000 -1.0000000  0.0000000 )
                  (  0.0000000  0.0000000 -1.0000000 )
                  (  1.0000000  0.0000000  0.0000000 )


      isym = 21     120 deg rotation - cart. axis [1,1,1]        

 cryst.   s(21) = (     0          1          0      )
                  (     0          0          1      )
                  (     1          0          0      )

 cart.    s(21) = (  0.0000000  0.0000000  1.0000000 )
                  (  1.0000000  0.0000000  0.0000000 )
                  (  0.0000000  1.0000000  0.0000000 )


      isym = 22     120 deg rotation - cart. axis [-1,1,-1]      

 cryst.   s(22) = (    -1          0          1      )
                  (    -1          1          0      )
                  (    -1          0          0      )

 cart.    s(22) = (  0.0000000  0.0000000  1.0000000 )
                  ( -1.0000000  0.0000000  0.0000000 )
                  (  0.0000000 -1.0000000  0.0000000 )


      isym = 23     120 deg rotation - cart. axis [1,-1,-1]      

 cryst.   s(23) = (     1          0         -1      )
                  (     0          0         -1      )
                  (     0          1         -1      )

 cart.    s(23) = (  0.0000000  0.0000000 -1.0000000 )
                  ( -1.0000000  0.0000000  0.0000000 )
                  (  0.0000000  1.0000000  0.0000000 )


      isym = 24     120 deg rotation - cart. axis [-1,-1,1]      

 cryst.   s(24) = (     0         -1          0      )
                  (     1         -1          0      )
                  (     0         -1          1      )

 cart.    s(24) = (  0.0000000  0.0000000 -1.0000000 )
                  (  1.0000000  0.0000000  0.0000000 )
                  (  0.0000000 -1.0000000  0.0000000 )


      isym = 25     inversion                                    

 cryst.   s(25) = (    -1          0          0      )
                  (     0         -1          0      )
                  (     0          0         -1      )

 cart.    s(25) = ( -1.0000000  0.0000000  0.0000000 )
                  (  0.0000000 -1.0000000  0.0000000 )
                  (  0.0000000  0.0000000 -1.0000000 )


      isym = 26     inv. 180 deg rotation - cart. axis [0,0,1]   

 cryst.   s(26) = (     0         -1          1      )
                  (    -1          0          1      )
                  (     0          0          1      )

 cart.    s(26) = (  1.0000000  0.0000000  0.0000000 )
                  (  0.0000000  1.0000000  0.0000000 )
                  (  0.0000000  0.0000000 -1.0000000 )


      isym = 27     inv. 180 deg rotation - cart. axis [0,1,0]   

 cryst.   s(27) = (     0          1         -1      )
                  (     0          1          0      )
                  (    -1          1          0      )

 cart.    s(27) = (  1.0000000  0.0000000  0.0000000 )
                  (  0.0000000 -1.0000000  0.0000000 )
                  (  0.0000000  0.0000000  1.0000000 )


      isym = 28     inv. 180 deg rotation - cart. axis [1,0,0]   

 cryst.   s(28) = (     1          0          0      )
                  (     1          0         -1      )
                  (     1         -1          0      )

 cart.    s(28) = ( -1.0000000  0.0000000  0.0000000 )
                  (  0.0000000  1.0000000  0.0000000 )
                  (  0.0000000  0.0000000  1.0000000 )


      isym = 29     inv. 180 deg rotation - cart. axis [1,1,0]   

 cryst.   s(29) = (     1          0         -1      )
                  (     0          1         -1      )
                  (     0          0         -1      )

 cart.    s(29) = (  0.0000000 -1.0000000  0.0000000 )
                  ( -1.0000000  0.0000000  0.0000000 )
                  (  0.0000000  0.0000000  1.0000000 )


      isym = 30     inv. 180 deg rotation - cart. axis [1,-1,0]  

 cryst.   s(30) = (     0          1          0      )
                  (     1          0          0      )
                  (     0          0          1      )

 cart.    s(30) = (  0.0000000  1.0000000  0.0000000 )
                  (  1.0000000  0.0000000  0.0000000 )
                  (  0.0000000  0.0000000  1.0000000 )


      isym = 31     inv.  90 deg rotation - cart. axis [0,0,-1]  

 cryst.   s(31) = (     0         -1          0      )
                  (     0         -1          1      )
                  (     1         -1          0      )

 cart.    s(31) = (  0.0000000 -1.0000000  0.0000000 )
                  (  1.0000000  0.0000000  0.0000000 )
                  (  0.0000000  0.0000000 -1.0000000 )


      isym = 32     inv.  90 deg rotation - cart. axis [0,0,1]   

 cryst.   s(32) = (    -1          0          1      )
                  (    -1          0          0      )
                  (    -1          1          0      )

 cart.    s(32) = (  0.0000000  1.0000000  0.0000000 )
                  ( -1.0000000  0.0000000  0.0000000 )
                  (  0.0000000  0.0000000 -1.0000000 )


      isym = 33     inv. 180 deg rotation - cart. axis [1,0,1]   

 cryst.   s(33) = (     1         -1          0      )
                  (     0         -1          0      )
                  (     0         -1          1      )

 cart.    s(33) = (  0.0000000  0.0000000 -1.0000000 )
                  (  0.0000000  1.0000000  0.0000000 )
                  ( -1.0000000  0.0000000  0.0000000 )


      isym = 34     inv. 180 deg rotation - cart. axis [-1,0,1]  

 cryst.   s(34) = (     0          0          1      )
                  (     0          1          0      )
                  (     1          0          0      )

 cart.    s(34) = (  0.0000000  0.0000000  1.0000000 )
                  (  0.0000000  1.0000000  0.0000000 )
                  (  1.0000000  0.0000000  0.0000000 )


      isym = 35     inv.  90 deg rotation - cart. axis [0,1,0]   

 cryst.   s(35) = (     0          0         -1      )
                  (     1          0         -1      )
                  (     0          1         -1      )

 cart.    s(35) = (  0.0000000  0.0000000 -1.0000000 )
                  (  0.0000000 -1.0000000  0.0000000 )
                  (  1.0000000  0.0000000  0.0000000 )


      isym = 36     inv.  90 deg rotation - cart. axis [0,-1,0]  

 cryst.   s(36) = (    -1          1          0      )
                  (    -1          0          1      )
                  (    -1          0          0      )

 cart.    s(36) = (  0.0000000  0.0000000  1.0000000 )
                  (  0.0000000 -1.0000000  0.0000000 )
                  ( -1.0000000  0.0000000  0.0000000 )


      isym = 37     inv. 180 deg rotation - cart. axis [0,1,1]   

 cryst.   s(37) = (    -1          0          0      )
                  (    -1          1          0      )
                  (    -1          0          1      )

 cart.    s(37) = (  1.0000000  0.0000000  0.0000000 )
                  (  0.0000000  0.0000000 -1.0000000 )
                  (  0.0000000 -1.0000000  0.0000000 )


      isym = 38     inv. 180 deg rotation - cart. axis [0,1,-1]  

 cryst.   s(38) = (     1          0          0      )
                  (     0          0          1      )
                  (     0          1          0      )

 cart.    s(38) = (  1.0000000  0.0000000  0.0000000 )
                  (  0.0000000  0.0000000  1.0000000 )
                  (  0.0000000  1.0000000  0.0000000 )


      isym = 39     inv.  90 deg rotation - cart. axis [-1,0,0]  

 cryst.   s(39) = (     0          1         -1      )
                  (     0          0         -1      )
                  (     1          0         -1      )

 cart.    s(39) = ( -1.0000000  0.0000000  0.0000000 )
                  (  0.0000000  0.0000000 -1.0000000 )
                  (  0.0000000  1.0000000  0.0000000 )


      isym = 40     inv.  90 deg rotation - cart. axis [1,0,0]   

 cryst.   s(40) = (     0         -1          1      )
                  (     1         -1          0      )
                  (     0         -1          0      )

 cart.    s(40) = ( -1.0000000  0.0000000  0.0000000 )
                  (  0.0000000  0.0000000  1.0000000 )
                  (  0.0000000 -1.0000000  0.0000000 )


      isym = 41     inv. 120 deg rotation - cart. axis [-1,-1,-1]

 cryst.   s(41) = (     0          0         -1      )
                  (    -1          0          0      )
                  (     0         -1          0      )

 cart.    s(41) = (  0.0000000 -1.0000000  0.0000000 )
                  (  0.0000000  0.0000000 -1.0000000 )
                  ( -1.0000000  0.0000000  0.0000000 )


      isym = 42     inv. 120 deg rotation - cart. axis [-1,1,1]  

 cryst.   s(42) = (    -1          1          0      )
                  (     0          1         -1      )
                  (     0          1          0      )

 cart.    s(42) = (  0.0000000  1.0000000  0.0000000 )
                  (  0.0000000  0.0000000 -1.0000000 )
                  (  1.0000000  0.0000000  0.0000000 )


      isym = 43     inv. 120 deg rotation - cart. axis [1,1,-1]  

 cryst.   s(43) = (     1         -1          0      )
                  (     1          0          0      )
                  (     1          0         -1      )

 cart.    s(43) = (  0.0000000 -1.0000000  0.0000000 )
                  (  0.0000000  0.0000000  1.0000000 )
                  (  1.0000000  0.0000000  0.0000000 )


      isym = 44     inv. 120 deg rotation - cart. axis [1,-1,1]  

 cryst.   s(44) = (     0          0          1      )
                  (     0         -1          1      )
                  (    -1          0          1      )

 cart.    s(44) = (  0.0000000  1.0000000  0.0000000 )
                  (  0.0000000  0.0000000  1.0000000 )
                  ( -1.0000000  0.0000000  0.0000000 )


      isym = 45     inv. 120 deg rotation - cart. axis [1,1,1]   

 cryst.   s(45) = (     0         -1          0      )
                  (     0          0         -1      )
                  (    -1          0          0      )

 cart.    s(45) = (  0.0000000  0.0000000 -1.0000000 )
                  ( -1.0000000  0.0000000  0.0000000 )
                  (  0.0000000 -1.0000000  0.0000000 )


      isym = 46     inv. 120 deg rotation - cart. axis [-1,1,-1] 

 cryst.   s(46) = (     1          0         -1      )
                  (     1         -1          0      )
                  (     1          0          0      )

 cart.    s(46) = (  0.0000000  0.0000000 -1.0000000 )
                  (  1.0000000  0.0000000  0.0000000 )
                  (  0.0000000  1.0000000  0.0000000 )


      isym = 47     inv. 120 deg rotation - cart. axis [1,-1,-1] 

 cryst.   s(47) = (    -1          0          1      )
                  (     0          0          1      )
                  (     0         -1          1      )

 cart.    s(47) = (  0.0000000  0.0000000  1.0000000 )
                  (  1.0000000  0.0000000  0.0000000 )
                  (  0.0000000 -1.0000000  0.0000000 )


      isym = 48     inv. 120 deg rotation - cart. axis [-1,-1,1] 

 cryst.   s(48) = (     0          1          0      )
                  (    -1          1          0      )
                  (     0          1         -1      )

 cart.    s(48) = (  0.0000000  0.0000000  1.0000000 )
                  ( -1.0000000  0.0000000  0.0000000 )
                  (  0.0000000  1.0000000  0.0000000 )


   Cartesian axes

     site n.     atom                  positions (alat units)
         1           Cu  tau(   1) = (   0.0000000   0.0000000   0.0000000  )

   Crystallographic axes

     site n.     atom                  positions (cryst. coord.)
         1           Cu  tau(   1) = (  0.0000000  0.0000000  0.0000000  )

     number of k points=    50  gaussian smearing, width (Ry)=  0.0010
                       cart. coord. in units 2pi/alat
        k(    1) = (   0.3535534   0.7071068   0.0000000), wk =   0.0400000
        k(    2) = (   0.3535534   0.6678231   0.0392837), wk =   0.0400000
        k(    3) = (   0.3535534   0.6285394   0.0785674), wk =   0.0400000
        k(    4) = (   0.3535534   0.5892557   0.1178511), wk =   0.0400000
        k(    5) = (   0.3535534   0.5499719   0.1571348), wk =   0.0400000
        k(    6) = (   0.3535534   0.5106882   0.1964186), wk =   0.0400000
        k(    7) = (   0.3535534   0.4714045   0.2357023), wk =   0.0400000
        k(    8) = (   0.3535534   0.4321208   0.2749860), wk =   0.0400000
        k(    9) = (   0.3535534   0.3928371   0.3142697), wk =   0.0400000
        k(   10) = (   0.3535534   0.3535534   0.3535534), wk =   0.0400000
        k(   11) = (   0.3240906   0.3240906   0.3240906), wk =   0.0400000
        k(   12) = (   0.2946278   0.2946278   0.2946278), wk =   0.0400000
        k(   13) = (   0.2651650   0.2651650   0.2651650), wk =   0.0400000
        k(   14) = (   0.2357023   0.2357023   0.2357023), wk =   0.0400000
        k(   15) = (   0.2062395   0.2062395   0.2062395), wk =   0.0400000
        k(   16) = (   0.1767767   0.1767767   0.1767767), wk =   0.0400000
        k(   17) = (   0.1473139   0.1473139   0.1473139), wk =   0.0400000
        k(   18) = (   0.1178511   0.1178511   0.1178511), wk =   0.0400000
        k(   19) = (   0.0883883   0.0883883   0.0883883), wk =   0.0400000
        k(   20) = (   0.0589256   0.0589256   0.0589256), wk =   0.0400000
        k(   21) = (   0.0294628   0.0294628   0.0294628), wk =   0.0400000
        k(   22) = (   0.0000000   0.0000000   0.0000000), wk =   0.0400000
        k(   23) = (   0.0000000   0.0471405   0.0000000), wk =   0.0400000
        k(   24) = (   0.0000000   0.0942809   0.0000000), wk =   0.0400000
        k(   25) = (   0.0000000   0.1414214   0.0000000), wk =   0.0400000
        k(   26) = (   0.0000000   0.1885618   0.0000000), wk =   0.0400000
        k(   27) = (   0.0000000   0.2357023   0.0000000), wk =   0.0400000
        k(   28) = (   0.0000000   0.2828427   0.0000000), wk =   0.0400000
        k(   29) = (   0.0000000   0.3299832   0.0000000), wk =   0.0400000
        k(   30) = (   0.0000000   0.3771236   0.0000000), wk =   0.0400000
        k(   31) = (   0.0000000   0.4242641   0.0000000), wk =   0.0400000
        k(   32) = (   0.0000000   0.4714045   0.0000000), wk =   0.0400000
        k(   33) = (   0.0000000   0.5185450   0.0000000), wk =   0.0400000
        k(   34) = (   0.0000000   0.5656854   0.0000000), wk =   0.0400000
        k(   35) = (   0.0000000   0.6128259   0.0000000), wk =   0.0400000
        k(   36) = (   0.0000000   0.6599663   0.0000000), wk =   0.0400000
        k(   37) = (   0.0000000   0.7071068   0.0000000), wk =   0.0400000
        k(   38) = (   0.0505076   0.7071068   0.0000000), wk =   0.0400000
        k(   39) = (   0.1010153   0.7071068   0.0000000), wk =   0.0400000
        k(   40) = (   0.1515229   0.7071068   0.0000000), wk =   0.0400000
        k(   41) = (   0.2020305   0.7071068  -0.0000000), wk =   0.0400000
        k(   42) = (   0.2525381   0.7071068  -0.0000000), wk =   0.0400000
        k(   43) = (   0.3030458   0.7071068   0.0000000), wk =   0.0400000
        k(   44) = (   0.3535534   0.7071068   0.0000000), wk =   0.0400000
        k(   45) = (   0.3830162   0.6776440   0.0000000), wk =   0.0400000
        k(   46) = (   0.4124790   0.6481812   0.0000000), wk =   0.0400000
        k(   47) = (   0.4419417   0.6187184   0.0000000), wk =   0.0400000
        k(   48) = (   0.4714045   0.5892557   0.0000000), wk =   0.0400000
        k(   49) = (   0.5008673   0.5597929   0.0000000), wk =   0.0400000
        k(   50) = (   0.5303301   0.5303301   0.0000000), wk =   0.0400000

                       cryst. coord.
        k(    1) = (   0.5000000   0.2500000   0.7500000), wk =   0.0400000
        k(    2) = (   0.5000000   0.2777778   0.7222222), wk =   0.0400000
        k(    3) = (   0.5000000   0.3055556   0.6944444), wk =   0.0400000
        k(    4) = (   0.5000000   0.3333333   0.6666667), wk =   0.0400000
        k(    5) = (   0.5000000   0.3611111   0.6388889), wk =   0.0400000
        k(    6) = (   0.5000000   0.3888889   0.6111111), wk =   0.0400000
        k(    7) = (   0.5000000   0.4166667   0.5833333), wk =   0.0400000
        k(    8) = (   0.5000000   0.4444444   0.5555556), wk =   0.0400000
        k(    9) = (   0.5000000   0.4722222   0.5277778), wk =   0.0400000
        k(   10) = (   0.5000000   0.5000000   0.5000000), wk =   0.0400000
        k(   11) = (   0.4583333   0.4583333   0.4583333), wk =   0.0400000
        k(   12) = (   0.4166667   0.4166667   0.4166667), wk =   0.0400000
        k(   13) = (   0.3750000   0.3750000   0.3750000), wk =   0.0400000
        k(   14) = (   0.3333333   0.3333333   0.3333333), wk =   0.0400000
        k(   15) = (   0.2916667   0.2916667   0.2916667), wk =   0.0400000
        k(   16) = (   0.2500000   0.2500000   0.2500000), wk =   0.0400000
        k(   17) = (   0.2083333   0.2083333   0.2083333), wk =   0.0400000
        k(   18) = (   0.1666667   0.1666667   0.1666667), wk =   0.0400000
        k(   19) = (   0.1250000   0.1250000   0.1250000), wk =   0.0400000
        k(   20) = (   0.0833333   0.0833333   0.0833333), wk =   0.0400000
        k(   21) = (   0.0416667   0.0416667   0.0416667), wk =   0.0400000
        k(   22) = (   0.0000000   0.0000000   0.0000000), wk =   0.0400000
        k(   23) = (   0.0333333   0.0000000   0.0333333), wk =   0.0400000
        k(   24) = (   0.0666667   0.0000000   0.0666667), wk =   0.0400000
        k(   25) = (   0.1000000   0.0000000   0.1000000), wk =   0.0400000
        k(   26) = (   0.1333333   0.0000000   0.1333333), wk =   0.0400000
        k(   27) = (   0.1666667   0.0000000   0.1666667), wk =   0.0400000
        k(   28) = (   0.2000000   0.0000000   0.2000000), wk =   0.0400000
        k(   29) = (   0.2333333   0.0000000   0.2333333), wk =   0.0400000
        k(   30) = (   0.2666667   0.0000000   0.2666667), wk =   0.0400000
        k(   31) = (   0.3000000   0.0000000   0.3000000), wk =   0.0400000
        k(   32) = (   0.3333333   0.0000000   0.3333333), wk =   0.0400000
        k(   33) = (   0.3666667   0.0000000   0.3666667), wk =   0.0400000
        k(   34) = (   0.4000000   0.0000000   0.4000000), wk =   0.0400000
        k(   35) = (   0.4333333   0.0000000   0.4333333), wk =   0.0400000
        k(   36) = (   0.4666667   0.0000000   0.4666667), wk =   0.0400000
        k(   37) = (   0.5000000   0.0000000   0.5000000), wk =   0.0400000
        k(   38) = (   0.5000000   0.0357143   0.5357143), wk =   0.0400000
        k(   39) = (   0.5000000   0.0714286   0.5714286), wk =   0.0400000
        k(   40) = (   0.5000000   0.1071429   0.6071429), wk =   0.0400000
        k(   41) = (   0.5000000   0.1428571   0.6428571), wk =   0.0400000
        k(   42) = (   0.5000000   0.1785714   0.6785714), wk =   0.0400000
        k(   43) = (   0.5000000   0.2142857   0.7142857), wk =   0.0400000
        k(   44) = (   0.5000000   0.2500000   0.7500000), wk =   0.0400000
        k(   45) = (   0.4791667   0.2708333   0.7500000), wk =   0.0400000
        k(   46) = (   0.4583333   0.2916667   0.7500000), wk =   0.0400000
        k(   47) = (   0.4375000   0.3125000   0.7500000), wk =   0.0400000
        k(   48) = (   0.4166667   0.3333333   0.7500000), wk =   0.0400000
        k(   49) = (   0.3958333   0.3541667   0.7500000), wk =   0.0400000
        k(   50) = (   0.3750000   0.3750000   0.7500000), wk =   0.0400000

     Dense  grid:     3839 G-vectors     FFT dimensions: (  24,  24,  24)

     Smooth grid:     2733 G-vectors     FFT dimensions: (  20,  20,  20)

     Estimated max dynamical RAM per process >       5.86Mb

     Check: negative/imaginary core charge=   -0.000002    0.000000

     The potential is recalculated from file :
     ./pwscf.save/charge-density.dat

     Starting wfc are   13 randomized atomic wfcs +    1 random wfc

     Band Structure Calculation
     Davidson diagonalization with overlap

     Computing kpt #:     1
     total cpu time spent up to now is        0.7 secs

     Computing kpt #:     2
     total cpu time spent up to now is        0.8 secs

     Computing kpt #:     3
     total cpu time spent up to now is        0.8 secs

     Computing kpt #:     4
     total cpu time spent up to now is        0.9 secs

     Computing kpt #:     5
     total cpu time spent up to now is        1.0 secs

     Computing kpt #:     6
     total cpu time spent up to now is        1.1 secs

     Computing kpt #:     7
     total cpu time spent up to now is        1.2 secs

     Computing kpt #:     8
     total cpu time spent up to now is        1.3 secs

     Computing kpt #:     9
     total cpu time spent up to now is        1.4 secs

     Computing kpt #:    10
     total cpu time spent up to now is        1.4 secs

     Computing kpt #:    11
     total cpu time spent up to now is        1.5 secs

     Computing kpt #:    12
     total cpu time spent up to now is        1.6 secs

     Computing kpt #:    13
     total cpu time spent up to now is        1.7 secs

     Computing kpt #:    14
     total cpu time spent up to now is        1.8 secs

     Computing kpt #:    15
     total cpu time spent up to now is        1.8 secs

     Computing kpt #:    16
     total cpu time spent up to now is        1.9 secs

     Computing kpt #:    17
     total cpu time spent up to now is        2.0 secs

     Computing kpt #:    18
     total cpu time spent up to now is        2.1 secs

     Computing kpt #:    19
     total cpu time spent up to now is        2.1 secs

     Computing kpt #:    20
     total cpu time spent up to now is        2.2 secs

     Computing kpt #:    21
     total cpu time spent up to now is        2.3 secs

     Computing kpt #:    22
     total cpu time spent up to now is        2.4 secs

     Computing kpt #:    23
     total cpu time spent up to now is        2.5 secs

     Computing kpt #:    24
     total cpu time spent up to now is        2.5 secs

     Computing kpt #:    25
     total cpu time spent up to now is        2.6 secs

     Computing kpt #:    26
     total cpu time spent up to now is        2.7 secs

     Computing kpt #:    27
     total cpu time spent up to now is        2.8 secs

     Computing kpt #:    28
     total cpu time spent up to now is        2.8 secs

     Computing kpt #:    29
     total cpu time spent up to now is        2.9 secs

     Computing kpt #:    30
     total cpu time spent up to now is        3.0 secs

     Computing kpt #:    31
     total cpu time spent up to now is        3.1 secs

     Computing kpt #:    32
     total cpu time spent up to now is        3.2 secs

     Computing kpt #:    33
     total cpu time spent up to now is        3.3 secs

     Computing kpt #:    34
     total cpu time spent up to now is        3.3 secs

     Computing kpt #:    35
     total cpu time spent up to now is        3.4 secs

     Computing kpt #:    36
     total cpu time spent up to now is        3.5 secs

     Computing kpt #:    37
     total cpu time spent up to now is        3.5 secs

     Computing kpt #:    38
     total cpu time spent up to now is        3.6 secs

     Computing kpt #:    39
     total cpu time spent up to now is        3.7 secs

     Computing kpt #:    40
     total cpu time spent up to now is        3.7 secs

     Computing kpt #:    41
     total cpu time spent up to now is        3.8 secs

     Computing kpt #:    42
     total cpu time spent up to now is        3.9 secs

     Computing kpt #:    43
     total cpu time spent up to now is        4.0 secs

     Computing kpt #:    44
     total cpu time spent up to now is        4.0 secs

     Computing kpt #:    45
     total cpu time spent up to now is        4.1 secs

     Computing kpt #:    46
     total cpu time spent up to now is        4.2 secs

     Computing kpt #:    47
     total cpu time spent up to now is        4.3 secs

     Computing kpt #:    48
     total cpu time spent up to now is        4.4 secs

     Computing kpt #:    49
     total cpu time spent up to now is        4.4 secs

     Computing kpt #:    50
     total cpu time spent up to now is        4.5 secs

     ethr =  5.26E-10,  avg # of iterations = 10.4

     total cpu time spent up to now is        4.5 secs

     End of band structure calculation

          k = 0.3536 0.7071 0.0000 (   360 PWs)   bands (ev):

   -96.4333 -53.8547 -53.8547 -53.8246  11.9486  12.5689  12.5689  13.8788
    14.6565  22.2704  22.2704  24.4154  24.8252  44.3190

          k = 0.3536 0.6678 0.0393 (   344 PWs)   bands (ev):

   -96.4334 -53.8567 -53.8530 -53.8230  11.9763  12.5185  12.5924  13.8781
    14.6236  21.6881  21.9478  25.0865  25.3573  43.4035

          k = 0.3536 0.6285 0.0786 (   344 PWs)   bands (ev):

   -96.4338 -53.8614 -53.8482 -53.8191  12.0586  12.3763  12.6610  13.8574
    14.5459  20.6719  21.3750  26.3659  26.5444  42.1864

          k = 0.3536 0.5893 0.1179 (   346 PWs)   bands (ev):

   -96.4344 -53.8674 -53.8408 -53.8145  12.1639  12.1935  12.7711  13.7775
    14.4763  19.6348  20.8675  27.8402  28.0369  41.0618

          k = 0.3536 0.5500 0.1571 (   344 PWs)   bands (ev):

   -96.4352 -53.8735 -53.8316 -53.8100  11.9072  12.3744  12.9204  13.6288
    14.4506  18.6483  20.4854  29.4373  29.7212  40.0691

          k = 0.3536 0.5107 0.1964 (   344 PWs)   bands (ev):

   -96.4359 -53.8792 -53.8219 -53.8061  11.6353  12.5829  13.1151  13.4512
    14.4572  17.7292  20.2189  31.1348  31.5428  39.2286

          k = 0.3536 0.4714 0.2357 (   342 PWs)   bands (ev):

   -96.4367 -53.8840 -53.8128 -53.8030  11.3806  12.7823  13.2874  13.3779
    14.4749  16.8834  20.0431  32.9157  33.4551  38.5590

          k = 0.3536 0.4321 0.2750 (   344 PWs)   bands (ev):

   -96.4373 -53.8876 -53.8053 -53.8007  11.1736  12.9345  13.1610  13.7307
    14.4919  16.1155  19.9341  34.7402  35.3869  38.0841

          k = 0.3536 0.3928 0.3143 (   342 PWs)   bands (ev):

   -96.4377 -53.8899 -53.8005 -53.7993  11.0393  13.0257  13.0824  14.1634
    14.5033  15.4391  19.8755  36.4291  37.1612  37.8767

          k = 0.3536 0.3536 0.3536 (   344 PWs)   bands (ev):

   -96.4378 -53.8907 -53.7988 -53.7988  10.9927  13.0559  13.0559  14.5072
    14.5072  15.0150  19.8570  37.1374  38.0898  38.0898

          k = 0.3241 0.3241 0.3241 (   341 PWs)   bands (ev):

   -96.4381 -53.8889 -53.7985 -53.7985  10.9533  13.0644  13.0644  14.4873
    14.4873  14.7106  20.3233  37.1868  38.1060  38.1060

          k = 0.2946 0.2946 0.2946 (   344 PWs)   bands (ev):

   -96.4388 -53.8835 -53.7977 -53.7977  10.8136  13.0889  13.0889  14.0680
    14.4298  14.4298  21.4695  37.3317  38.1582  38.1582

          k = 0.2652 0.2652 0.2652 (   344 PWs)   bands (ev):

   -96.4399 -53.8749 -53.7964 -53.7964  10.5205  13.1265  13.1265  13.4585
    14.3411  14.3411  22.9766  37.5615  38.2540  38.2540

          k = 0.2357 0.2357 0.2357 (   344 PWs)   bands (ev):

   -96.4413 -53.8637 -53.7947 -53.7947  10.0405  13.0599  13.1719  13.1719
    14.2316  14.2316  24.6930  37.8582  38.4027  38.4027

          k = 0.2062 0.2062 0.2062 (   344 PWs)   bands (ev):

   -96.4430 -53.8507 -53.7927 -53.7927   9.4278  12.8750  13.2170  13.2170
    14.1155  14.1155  26.5551  38.1945  38.6110  38.6110

          k = 0.1768 0.1768 0.1768 (   344 PWs)   bands (ev):

   -96.4448 -53.8367 -53.7906 -53.7906   8.7804  12.8281  13.2501  13.2501
    14.0104  14.0104  28.5303  38.5349  38.8838  38.8838

          k = 0.1473 0.1473 0.1473 (   332 PWs)   bands (ev):

   -96.4466 -53.8227 -53.7885 -53.7885   8.1715  12.8546  13.2578  13.2578
    13.9347  13.9347  30.5966  38.8409  39.2242  39.2242

          k = 0.1179 0.1179 0.1179 (   332 PWs)   bands (ev):

   -96.4483 -53.8096 -53.7865 -53.7865   7.6424  12.9139  13.2339  13.2339
    13.8987  13.8987  32.7307  39.0844  39.6310  39.6310

          k = 0.0884 0.0884 0.0884 (   335 PWs)   bands (ev):

   -96.4497 -53.7983 -53.7848 -53.7848   7.2158  12.9812  13.1885  13.1885
    13.8952  13.8952  34.8926  39.2729  40.0974  40.0974

          k = 0.0589 0.0589 0.0589 (   332 PWs)   bands (ev):

   -96.4508 -53.7897 -53.7835 -53.7835   6.9041  13.0402  13.1408  13.1408
    13.9071  13.9071  36.9558  39.5116  40.5996  40.5996

          k = 0.0295 0.0295 0.0295 (   332 PWs)   bands (ev):

   -96.4515 -53.7842 -53.7827 -53.7827   6.7147  13.0799  13.1063  13.1063
    13.9198  13.9198  38.3493  40.2830  41.0598  41.0598

          k = 0.0000 0.0000 0.0000 (   331 PWs)   bands (ev):

   -96.4517 -53.7824 -53.7824 -53.7824   6.6512  13.0939  13.0939  13.0939
    13.9249  13.9249  38.6543  41.2745  41.2745  41.2745

          k = 0.0000 0.0471 0.0000 (   331 PWs)   bands (ev):

   -96.4515 -53.7835 -53.7828 -53.7828   6.7054  13.0775  13.1069  13.1069
    13.9099  13.9308  38.4647  40.6574  40.6574  41.0369

          k = 0.0000 0.0943 0.0000 (   335 PWs)   bands (ev):

   -96.4510 -53.7870 -53.7842 -53.7842   6.8674  13.0290  13.1456  13.1456
    13.8662  13.9485  37.9967  39.5029  39.5029  40.4375

          k = 0.0000 0.1414 0.0000 (   335 PWs)   bands (ev):

   -96.4500 -53.7925 -53.7864 -53.7864   7.1348  12.9510  13.2095  13.2095
    13.7971  13.9771  37.4159  38.2624  38.2624  39.6624

          k = 0.0000 0.1886 0.0000 (   335 PWs)   bands (ev):

   -96.4487 -53.7998 -53.7893 -53.7893   7.5032  12.8474  13.2976  13.2976
    13.7087  14.0156  36.8224  37.0318  37.0318  38.8153

          k = 0.0000 0.2357 0.0000 (   335 PWs)   bands (ev):

   -96.4471 -53.8087 -53.7928 -53.7928   7.9654  12.7233  13.4081  13.4081
    13.6104  14.0622  35.8427  35.8427  36.2630  37.8954

          k = 0.0000 0.2828 0.0000 (   343 PWs)   bands (ev):

   -96.4454 -53.8186 -53.7968 -53.7968   8.5090  12.5848  13.5180  13.5387
    13.5387  14.1151  34.7110  34.7110  35.7570  36.7828

          k = 0.0000 0.3300 0.0000 (   343 PWs)   bands (ev):

   -96.4435 -53.8292 -53.8010 -53.8010   9.1124  12.4382  13.4559  13.6859
    13.6859  14.1721  33.6504  33.6504  35.3017  35.3121

          k = 0.0000 0.3771 0.0000 (   343 PWs)   bands (ev):

   -96.4415 -53.8400 -53.8054 -53.8054   9.7365  12.2903  13.4661  13.8451
    13.8451  14.2306  32.6714  32.6714  33.5163  34.9289

          k = 0.0000 0.4243 0.0000 (   339 PWs)   bands (ev):

   -96.4396 -53.8504 -53.8096 -53.8096  10.3147  12.1474  13.6167  14.0103
    14.0103  14.2881  31.6257  31.7854  31.7854  34.6058

          k = 0.0000 0.4714 0.0000 (   335 PWs)   bands (ev):

   -96.4379 -53.8601 -53.8136 -53.8136  10.7591  12.0157  13.9929  14.1741
    14.1741  14.3422  29.7465  31.0044  31.0044  34.3412

          k = 0.0000 0.5185 0.0000 (   327 PWs)   bands (ev):

   -96.4363 -53.8687 -53.8171 -53.8171  11.0238  11.9002  14.3277  14.3277
    14.3902  14.6313  27.9410  30.3407  30.3407  34.1302

          k = 0.0000 0.5657 0.0000 (   335 PWs)   bands (ev):

   -96.4350 -53.8758 -53.8200 -53.8200  11.1451  11.8054  14.4301  14.4617
    14.4617  15.4702  26.2601  29.8068  29.8068  33.9685

          k = 0.0000 0.6128 0.0000 (   335 PWs)   bands (ev):

   -96.4340 -53.8811 -53.8222 -53.8222  11.1881  11.7351  14.4600  14.5662
    14.5662  16.3829  24.7814  29.4150  29.4150  33.8555

          k = 0.0000 0.6600 0.0000 (   342 PWs)   bands (ev):

   -96.4334 -53.8843 -53.8235 -53.8235  11.1983  11.6919  14.4785  14.6328
    14.6328  17.1720  23.6640  29.1754  29.1754  33.7884

          k = 0.0000 0.7071 0.0000 (   342 PWs)   bands (ev):

   -96.4332 -53.8854 -53.8240 -53.8240  11.1995  11.6773  14.4848  14.6557
    14.6557  17.5110  23.2176  29.0947  29.0947  33.7662

          k = 0.0505 0.7071 0.0000 (   342 PWs)   bands (ev):

   -96.4332 -53.8847 -53.8247 -53.8240  11.2289  11.6948  14.4626  14.5379
    14.6558  17.6846  23.2394  28.6847  28.8277  34.2509

          k = 0.1010 0.7071 0.0000 (   342 PWs)   bands (ev):

   -96.4332 -53.8824 -53.8270 -53.8241  11.3142  11.7476  14.2485  14.3975
    14.6559  18.1410  23.3065  27.7543  28.1713  35.4061

          k = 0.1515 0.7071 0.0000 (   342 PWs)   bands (ev):

   -96.4332 -53.8787 -53.8307 -53.8242  11.4462  11.8361  13.8888  14.2947
    14.6561  18.7781  23.4241  26.6498  27.3627  36.8860

          k = 0.2020 0.7071-0.0000 (   344 PWs)   bands (ev):

   -96.4332 -53.8739 -53.8356 -53.8243  11.6075  11.9613  13.5196  14.1653
    14.6562  19.5336  23.5991  25.5108  26.5529  38.5524

          k = 0.2525 0.7071-0.0000 (   344 PWs)   bands (ev):

   -96.4332 -53.8681 -53.8414 -53.8245  11.7713  12.1246  13.1691  14.0298
    14.6564  20.3768  23.8406  24.3893  25.8171  40.3581

          k = 0.3030 0.7071 0.0000 (   344 PWs)   bands (ev):

   -96.4332 -53.8616 -53.8479 -53.8245  11.8992  12.3270  12.8504  13.9214
    14.6565  21.2922  23.3059  24.1517  25.1953  42.2835

          k = 0.3536 0.7071 0.0000 (   360 PWs)   bands (ev):

   -96.4333 -53.8547 -53.8547 -53.8246  11.9486  12.5689  12.5689  13.8788
    14.6565  22.2704  22.2704  24.4154  24.8252  44.3190

          k = 0.3830 0.6776 0.0000 (   344 PWs)   bands (ev):

   -96.4333 -53.8585 -53.8511 -53.8240  11.9397  12.4167  12.7282  13.8930
    14.6467  21.7227  22.5221  24.3491  25.3268  42.8045

          k = 0.4125 0.6482 0.0000 (   344 PWs)   bands (ev):

   -96.4334 -53.8618 -53.8486 -53.8224  11.9150  12.2756  12.8950  13.9288
    14.6177  21.2590  22.3752  24.1974  26.4950  41.0444

          k = 0.4419 0.6187 0.0000 (   343 PWs)   bands (ev):

   -96.4335 -53.8644 -53.8473 -53.8202  11.8787  12.1613  13.0583  13.9744
    14.5726  20.8873  22.1545  24.0721  27.8715  39.2502

          k = 0.4714 0.5893 0.0000 (   344 PWs)   bands (ev):

   -96.4336 -53.8663 -53.8467 -53.8179  11.8368  12.0834  13.2024  14.0174
    14.5197  20.6150  21.9659  23.9841  29.2901  37.5359

          k = 0.5009 0.5598 0.0000 (   342 PWs)   bands (ev):

   -96.4336 -53.8675 -53.8464 -53.8163  11.8025  12.0412  13.3055  14.0477
    14.4742  20.4488  21.8439  23.9326  30.5704  36.0775

          k = 0.5303 0.5303 0.0000 (   347 PWs)   bands (ev):

   -96.4336 -53.8679 -53.8464 -53.8157  11.7892  12.0281  13.3437  14.0586
    14.4557  20.3928  21.8019  23.9154  31.1925  35.3955

     Writing output data file pwscf.save

     init_run     :      0.47s CPU      0.41s WALL (       1 calls)
     electrons    :      6.16s CPU      3.90s WALL (       1 calls)

     Called by init_run:
     wfcinit      :      0.00s CPU      0.00s WALL (       1 calls)
     wfcinit:atom :      0.06s CPU      0.01s WALL (      50 calls)
     wfcinit:wfcr :      0.28s CPU      0.25s WALL (      50 calls)
     potinit      :      0.02s CPU      0.02s WALL (       1 calls)

     Called by electrons:
     c_bands      :      6.16s CPU      3.89s WALL (       1 calls)
     v_of_rho     :      0.02s CPU      0.01s WALL (       1 calls)
     v_h          :      0.00s CPU      0.00s WALL (       1 calls)
     v_xc         :      0.02s CPU      0.01s WALL (       1 calls)
     newd         :      0.00s CPU      0.02s WALL (       1 calls)

     Called by c_bands:
     init_us_2    :      0.02s CPU      0.02s WALL (      50 calls)
     cegterg      :      5.67s CPU      3.55s WALL (      50 calls)

     Called by sum_band:

     Called by *egterg:
     h_psi        :      2.19s CPU      1.51s WALL (     621 calls)
     s_psi        :      0.03s CPU      0.05s WALL (     621 calls)
     g_psi        :      0.03s CPU      0.02s WALL (     521 calls)
     cdiaghg      :      2.83s CPU      1.74s WALL (     571 calls)
     cegterg:over :      0.44s CPU      0.16s WALL (     521 calls)
     cegterg:upda :      0.16s CPU      0.13s WALL (     521 calls)
     cegterg:last :      0.16s CPU      0.07s WALL (     113 calls)

     Called by h_psi:
     h_psi:pot    :      2.19s CPU      1.49s WALL (     621 calls)
     h_psi:calbec :      0.09s CPU      0.07s WALL (     621 calls)
     vloc_psi     :      1.94s CPU      1.35s WALL (     621 calls)
     add_vuspsi   :      0.14s CPU      0.05s WALL (     621 calls)

     General routines
     calbec       :      0.09s CPU      0.06s WALL (     621 calls)
     fft          :      0.02s CPU      0.01s WALL (      13 calls)
     ffts         :      0.00s CPU      0.00s WALL (       1 calls)
     fftw         :      1.55s CPU      1.04s WALL (   10980 calls)
     interpolate  :      0.00s CPU      0.00s WALL (       1 calls)
     davcio       :      0.00s CPU      0.00s WALL (      50 calls)

     Parallel routines
     fft_scatter  :      0.14s CPU      0.17s WALL (   10994 calls)

     PWSCF        :     7.09s CPU         4.78s WALL


   This run was terminated on:  14:28:10  25Feb2021            

=------------------------------------------------------------------------------=
   JOB DONE.
=------------------------------------------------------------------------------=
