element =  Cd
struct =  hcp
nbands =  -4
path =  GMKGALHA,LM,KH
kpts =  (8,8,4)

  ___ ___ ___ _ _ _  
 |   |   |_  | | | | 
 | | | | | . | | | | 
 |__ |  _|___|_____|  1.3.1b1
 |___|_|             

User:   inukai@DESKTOP-12SE80T
Date:   Sun Feb 14 08:58:23 2021
Arch:   x86_64
Pid:    12244
Python: 3.6.9
gpaw:   /usr/lib/python3/dist-packages/gpaw
_gpaw:  /usr/lib/python3/dist-packages/_gpaw.cpython-36m-x86_64-linux-gnu.so
ase:    /home/inukai/hotcent/ase-3.19.3/ase (version 3.19.3)
numpy:  /home/inukai/.local/lib/python3.6/site-packages/numpy (version 1.19.5)
scipy:  /home/inukai/.local/lib/python3.6/site-packages/scipy (version 1.5.4)
units:  Angstrom and eV
cores:  1

Input parameters:
  kpts: [8 8 4]
  maxiter: 1500
  mixer: {backend: pulay,
          beta: 0.05,
          method: separate,
          nmaxold: 5,
          weight: 50}
  mode: {ecut: 400.0,
         name: pw}
  occupations: {name: fermi-dirac,
                width: 0.02}
  spinpol: True
  xc: PBE

System changes: positions, numbers, cell, pbc, initial_charges, initial_magmoms 

Initialize ...

Cd-setup:
  name: Cadmium
  id: b24f2afa1c5614a277213cf5a4209897
  Z: 48
  valence: 12
  core: 36
  charge: 0.0
  file: /usr/share/gpaw-setups/Cd.PBE.gz
  cutoffs: 1.20(comp), 2.12(filt), 2.62(core), lmax=2
  valence states:
                energy  radius
    5s(2.00)    -5.655   1.191
    5p(0.00)    -1.186   1.228
    4d(10.00)   -11.739   1.164
    *s          21.556   1.191
    *p          26.026   1.228
    *d          15.473   1.164

  Using partial waves for Cd as LCAO basis

Reference energy: -304346.236673

Spin-polarized calculation.
Magnetic moment:  0.000000

Occupation numbers:
  Fermi-Dirac: width=0.0200 eV

Convergence criteria:
  Maximum total energy change: 0.0005 eV / electron
  Maximum integral of absolute density change: 0.0001 electrons
  Maximum integral of absolute eigenstate change: 4e-08 eV^2
  Maximum number of iterations: 1500

Symmetries present (total): 12

  ( 1  1  0)  ( 1  1  0)  ( 1  0  0)  ( 1  0  0)  ( 0  1  0)  ( 0  1  0)
  ( 0 -1  0)  (-1  0  0)  ( 0  1  0)  (-1 -1  0)  ( 1  0  0)  (-1 -1  0)
  ( 0  0  1)  ( 0  0 -1)  ( 0  0  1)  ( 0  0 -1)  ( 0  0 -1)  ( 0  0  1)

  ( 0 -1  0)  ( 0 -1  0)  (-1  0  0)  (-1  0  0)  (-1 -1  0)  (-1 -1  0)
  ( 1  1  0)  (-1  0  0)  ( 1  1  0)  ( 0 -1  0)  ( 1  0  0)  ( 0  1  0)
  ( 0  0 -1)  ( 0  0  1)  ( 0  0  1)  ( 0  0 -1)  ( 0  0  1)  ( 0  0 -1)
Note: your k-points are not as symmetric as your crystal!

256 k-points: 8 x 8 x 4 Monkhorst-Pack grid
72 k-points in the irreducible part of the Brillouin zone
       k-points in crystal coordinates                weights
   0:     0.06250000   -0.06250000   -0.37500000          2/256
   1:     0.06250000   -0.06250000   -0.12500000          2/256
   2:     0.06250000   -0.06250000    0.12500000          2/256
   3:     0.06250000   -0.06250000    0.37500000          2/256
   4:     0.06250000    0.06250000    0.12500000          4/256
   5:     0.06250000    0.06250000    0.37500000          4/256
   6:     0.18750000   -0.18750000   -0.37500000          2/256
   7:     0.18750000   -0.18750000   -0.12500000          2/256
   8:     0.18750000   -0.18750000    0.12500000          2/256
   9:     0.18750000   -0.18750000    0.37500000          2/256
          ...
  71:     0.43750000    0.43750000    0.37500000          4/256

Wave functions: Plane wave expansion
  Cutoff energy: 400.000 eV
  Number of coefficients (min, max): 815, 858
  Using FFTW library
  Eigensolver: None  MatrixOperator buffer_size: default value or 
                              see value of nblock in input file
Diagonalizer layout: Serial LAPACKOrthonormalizer layout: Serial LAPACK 

Davidson(niter=1, smin=None, normalize=True) 

Densities:
  Coarse grid: 12*12*27 grid
  Fine grid: 24*24*54 grid
  Total Charge: 0.000000 

Density mixing:
  Method: separate
  Backend: pulay
  Linear mixing parameter: 0.05
  Mixing with 5 old densities
  Damping of long wave oscillations: 50 

Hamiltonian:
  XC and Coulomb potentials evaluated on a 24*24*54 grid
  Using the PBE Exchange-Correlation functional
 

Memory estimate:
  Process memory now: 929.76 MiB
  Calculator: 46.65 MiB
    Density: 2.19 MiB
      Arrays: 1.04 MiB
      Localized functions: 0.55 MiB
      Mixer: 0.59 MiB
    Hamiltonian: 0.78 MiB
      Arrays: 0.77 MiB
      XC: 0.00 MiB
      Poisson: 0.00 MiB
      vbar: 0.01 MiB
    Wavefunctions: 43.68 MiB
      Arrays psit_nG: 33.93 MiB
      Eigensolver: 0.35 MiB
      Projections: 1.42 MiB
      Projectors: 6.89 MiB
      Overlap op: 0.24 MiB
      PW-descriptor: 0.84 MiB

Total number of cores used: 1

Number of atoms: 2
Number of atomic orbitals: 18
Number of bands in calculation: 18
Bands to converge: occupied states only
Number of valence electrons: 24

... initialized

Initializing position-dependent things.

Density initialized from atomic densities
Creating initial wave functions:
  18 bands from LCAO basis set

                     
                     
                     
                     
        Cd           
                     
                     
           Cd        
                     
                     
                     
                     

Positions:
   0 Cd     0.000000    1.753505    4.327956
   1 Cd     1.518579    0.876752    1.442652

Unit cell:
           periodic     x           y           z      points  spacing
  1. axis:    yes    3.037159    0.000000    0.000000    12     0.2192
  2. axis:    yes   -1.518579    2.630257    0.000000    12     0.2192
  3. axis:    yes    0.000000    0.000000    5.770608    27     0.2137

  Lengths:   3.037159   3.037159   5.770608
  Angles:   90.000000  90.000000 120.000000

Effective grid spacing dv^(1/3) = 0.2280

                     log10-error:    total        iterations:
           time      wfs    density  energy       fermi  poisson  magmom
iter:   1  08:58:34  +1.60   +inf    -1.709356    3               -0.0000
iter:   2  08:58:39  -0.79   +inf    -1.728810    3               +0.0000
iter:   3  08:58:44  -1.66   +inf    -1.732357    2               -0.0000
iter:   4  08:58:50  -1.94  -1.46    -1.715580    3               -0.0000
iter:   5  08:58:56  -0.06  -1.48    -1.710192    31              +0.0000
iter:   6  08:59:01  -1.30  -2.01    -1.687467    3               -0.0000
iter:   7  08:59:07  -0.93  -2.11    -1.646464    4               +0.0000
iter:   8  08:59:13  -2.35  -2.54    -1.646547    3               -0.0000
iter:   9  08:59:18  -3.58  -3.10    -1.646678    2               +0.0000
iter:  10  08:59:24  -3.48  -3.06    -1.646477    3               -0.0000
iter:  11  08:59:30  -3.14  -3.13    -1.646470    3               -0.0000
iter:  12  08:59:36  -3.66  -3.52    -1.646420    3               -0.0000
iter:  13  08:59:41  -5.70  -3.84    -1.646421    2               -0.0000
iter:  14  08:59:47  -5.95  -3.81    -1.646423    2               -0.0000
iter:  15  08:59:53  -6.42  -3.79    -1.646425    2               -0.0000
iter:  16  08:59:59  -4.34  -3.78    -1.646418    2               +0.0000
iter:  17  09:00:04  -4.32  -3.83    -1.646424    2               -0.0000
iter:  18  09:00:10  -4.27  -3.77    -1.646418    2               +0.0000
iter:  19  09:00:16  -5.38  -4.10    -1.646417    2               +0.0000
iter:  20  09:00:22  -6.19  -4.16    -1.646417    2               +0.0000
iter:  21  09:00:27  -6.22  -4.15    -1.646417    2               +0.0000
iter:  22  09:00:33  -7.17  -4.15    -1.646417    2               +0.0000
iter:  23  09:00:39  -5.98  -4.15    -1.646418    2               -0.0000
iter:  24  09:00:45  -7.67  -4.49    -1.646418    2               -0.0000

Converged after 24 iterations.

Dipole moment: (0.000000, -0.000000, -0.000000) |e|*Ang

Total magnetic moment: -0.000000
Local magnetic moments:
   0 Cd -0.000000
   1 Cd -0.000000

Energy contributions relative to reference atoms: (reference = -304346.236673)

Kinetic:         +9.917938
Potential:       -7.525111
External:        +0.000000
XC:              -4.506554
Entropy (-ST):   -0.000900
Local:           +0.467759
--------------------------
Free energy:     -1.646868
Extrapolated:    -1.646418

Spin contamination: 0.000000 electrons
Fermi level: 6.77207

Warning: Showing only first 2 kpts
                      Up                     Down
 Kpt  Band  Eigenvalues  Occupancy  Eigenvalues  Occupancy
  0    10     -0.57660    0.00781     -0.57660    0.00781
  0    11      0.80654    0.00781      0.80654    0.00781
  0    12      8.69148    0.00000      8.69148    0.00000
  0    13     12.30835    0.00000     12.30835    0.00000

  1    10     -1.28706    0.00781     -1.28706    0.00781
  1    11      2.83312    0.00781      2.83312    0.00781
  1    12      5.51252    0.00781      5.51252    0.00781
  1    13     15.95129    0.00000     15.95129    0.00000


Input parameters:
  convergence: {bands: all}
  eigensolver: {name: cg,
                niter: 5}
  fixdensity: True
  kpts: {npoints: 50,
         path: GMKGALHA,LM,KH}
  nbands: -4
  symmetry: off

Initialize ...

Cd-setup:
  name: Cadmium
  id: b24f2afa1c5614a277213cf5a4209897
  Z: 48
  valence: 12
  core: 36
  charge: 0.0
  file: /usr/share/gpaw-setups/Cd.PBE.gz
  cutoffs: 1.20(comp), 2.12(filt), 2.62(core), lmax=2
  valence states:
                energy  radius
    5s(2.00)    -5.655   1.191
    5p(0.00)    -1.186   1.228
    4d(10.00)   -11.739   1.164
    *s          21.556   1.191
    *p          26.026   1.228
    *d          15.473   1.164

  Using partial waves for Cd as LCAO basis

Reference energy: -304346.236673

Spin-polarized calculation.
Magnetic moment:  0.000000

Occupation numbers:
  Fixed Fermi level
  Fermi-Dirac: width=0.0200 eV

Convergence criteria:
  Maximum total energy change: 0.0005 eV / electron
  Maximum integral of absolute density change: 0.0001 electrons
  Maximum integral of absolute eigenstate change: 4e-08 eV^2
  Maximum number of iterations: 1500

Symmetries present (total): 1

  ( 1  0  0)
  ( 0  1  0)
  ( 0  0  1)

50 k-points
50 k-points in the irreducible part of the Brillouin zone
       k-points in crystal coordinates                weights
   0:     0.00000000    0.00000000    0.00000000          1/50
   1:     0.08333333    0.00000000    0.00000000          1/50
   2:     0.16666667    0.00000000    0.00000000          1/50
   3:     0.25000000    0.00000000    0.00000000          1/50
   4:     0.33333333    0.00000000    0.00000000          1/50
   5:     0.41666667    0.00000000    0.00000000          1/50
   6:     0.50000000    0.00000000    0.00000000          1/50
   7:     0.44444444    0.11111111    0.00000000          1/50
   8:     0.38888889    0.22222222    0.00000000          1/50
   9:     0.33333333    0.33333333    0.00000000          1/50
          ...
  49:     0.33333333    0.33333333    0.50000000          1/50

Wave functions: Plane wave expansion
  Cutoff energy: 400.000 eV
  Number of coefficients (min, max): 810, 861
  Using FFTW library
  Eigensolver: None  MatrixOperator buffer_size: default value or 
                              see value of nblock in input file
Diagonalizer layout: Serial LAPACKOrthonormalizer layout: Serial LAPACK 

CG(niter=5, rtol=3.0e-01) 

No density mixing

Memory estimate:
  Process memory now: 1048.68 MiB
  Calculator: 30.76 MiB
    Density: 2.19 MiB
      Arrays: 1.04 MiB
      Localized functions: 0.55 MiB
      Mixer: 0.59 MiB
    Hamiltonian: 0.78 MiB
      Arrays: 0.77 MiB
      XC: 0.00 MiB
      Poisson: 0.00 MiB
      vbar: 0.01 MiB
    Wavefunctions: 27.80 MiB
      Arrays psit_nG: 21.02 MiB
      Eigensolver: 0.28 MiB
      Projections: 0.88 MiB
      Projectors: 4.78 MiB
      Overlap op: 0.21 MiB
      PW-descriptor: 0.63 MiB

Total number of cores used: 1

Number of atoms: 2
Number of atomic orbitals: 18
Number of bands in calculation: 16
Bands to converge: all
Number of valence electrons: 24

... initialized

Initializing position-dependent things.

Creating initial wave functions:
  16 bands from LCAO basis set

                     
                     
                     
                     
        Cd           
                     
                     
           Cd        
                     
                     
                     
                     

Positions:
   0 Cd     0.000000    1.753505    4.327956
   1 Cd     1.518579    0.876752    1.442652

Unit cell:
           periodic     x           y           z      points  spacing
  1. axis:    yes    3.037159    0.000000    0.000000    12     0.2192
  2. axis:    yes   -1.518579    2.630257    0.000000    12     0.2192
  3. axis:    yes    0.000000    0.000000    5.770608    27     0.2137

  Lengths:   3.037159   3.037159   5.770608
  Angles:   90.000000  90.000000 120.000000

Effective grid spacing dv^(1/3) = 0.2280

                     log10-error:    total        iterations:
           time      wfs    density  energy       fermi  poisson  magmom
iter:   1  09:01:01  +1.05           -2.439535    5               -0.0000
iter:   2  09:01:14  +0.19           -2.467185    5               -0.0000
iter:   3  09:01:27  -0.62           -2.472380    6               -0.0000
iter:   4  09:01:42  -1.05           -2.473101    6               -0.0000
iter:   5  09:01:55  -1.08           -2.473234    6               -0.0000
iter:   6  09:02:10  -1.16           -2.473257    6               -0.0000
iter:   7  09:02:25  -1.62           -2.473260    6               -0.0000
iter:   8  09:02:39  -1.00           -2.473261    6               -0.0000
iter:   9  09:02:52  -1.24           -2.473261    6               -0.0000
iter:  10  09:03:03  -2.32           -2.473261    6               -0.0000
iter:  11  09:03:08  -1.94           -2.473261    6               -0.0000
iter:  12  09:03:10  -1.81           -2.473261    6               -0.0000
iter:  13  09:03:12  -2.41           -2.473261    6               -0.0000
iter:  14  09:03:14  -4.17           -2.473261    6               -0.0000
iter:  15  09:03:16  -4.59           -2.473261    6               -0.0000
iter:  16  09:03:17  -5.32           -2.473261    6               -0.0000
iter:  17  09:03:19  -5.16           -2.473261    6               -0.0000
iter:  18  09:03:20  -5.01           -2.473261    6               -0.0000
iter:  19  09:03:22  -5.42           -2.473261    6               -0.0000
iter:  20  09:03:23  -4.63           -2.473261    6               -0.0000
iter:  21  09:03:25  -5.87           -2.473261    6               -0.0000
iter:  22  09:03:26  -6.64           -2.473261    6               -0.0000
iter:  23  09:03:27  -6.47           -2.473261    6               -0.0000
iter:  24  09:03:29  -6.96           -2.473261    6               -0.0000
iter:  25  09:03:30  -6.82           -2.473261    6               -0.0000
iter:  26  09:03:31  -7.39           -2.473261    6               -0.0000
iter:  27  09:03:33  -7.18           -2.473261    6               -0.0000
iter:  28  09:03:34  -7.71           -2.473261    6               -0.0000

Converged after 28 iterations.

Dipole moment: (0.000000, -0.000000, -0.000000) |e|*Ang

Total magnetic moment: -0.000000
Local magnetic moments:
   0 Cd -0.000000
   1 Cd -0.000000

Energy contributions relative to reference atoms: (reference = -304346.236673)

Kinetic:         +9.092545
Potential:       -7.524990
External:        +0.000000
XC:              -4.506436
Entropy (-ST):   -0.004199
Local:           +0.467720
--------------------------
Free energy:     -2.475360
Extrapolated:    -2.473261

Spin contamination: 0.000000 electrons
Fixed Fermi level: 6.77207

Warning: Showing only first 2 kpts
                      Up                     Down
 Kpt  Band  Eigenvalues  Occupancy  Eigenvalues  Occupancy
  0    10     -1.41726    0.02000     -1.41726    0.02000
  0    11      3.83297    0.02000      3.83297    0.02000
  0    12      4.16914    0.02000      4.16914    0.02000
  0    13     16.75974    0.00000     16.75974    0.00000

  1    10     -1.31460    0.02000     -1.31460    0.02000
  1    11      3.93466    0.02000      3.93466    0.02000
  1    12      4.41859    0.02000      4.41859    0.02000
  1    13     16.97563    0.00000     16.97563    0.00000


Timing:                              incl.     excl.
-----------------------------------------------------------
Hamiltonian:                         1.090     0.001   0.0% |
 Atomic:                             0.811     0.003   0.0% |
  XC Correction:                     0.808     0.808   0.3% |
 Calculate atomic Hamiltonians:      0.022     0.022   0.0% |
 Communicate:                        0.000     0.000   0.0% |
 Initialize Hamiltonian:             0.000     0.000   0.0% |
 Poisson:                            0.000     0.000   0.0% |
 XC 3D grid:                         0.255     0.255   0.1% |
LCAO initialization:                 7.056     0.114   0.0% |
 LCAO eigensolver:                   2.530     0.023   0.0% |
  Calculate projections:             0.014     0.014   0.0% |
  DenseAtomicCorrection:             0.064     0.064   0.0% |
  Distribute overlap matrix:         0.010     0.010   0.0% |
  Orbital Layouts:                   0.236     0.236   0.1% |
  Potential matrix:                  0.588     0.588   0.2% |
  Sum over cells:                    1.594     1.594   0.5% |
 LCAO to grid:                       3.331     3.331   1.1% |
 Set positions (LCAO WFS):           1.081     0.003   0.0% |
  Basic WFS set positions:           0.001     0.001   0.0% |
  Basis functions set positions:     0.000     0.000   0.0% |
  TCI: Calculate S, T, P:            1.077     1.077   0.3% |
PWDescriptor:                        0.038     0.038   0.0% |
Redistribute:                        0.000     0.000   0.0% |
SCF-cycle:                         300.973     6.993   2.2% ||
 CG:                               133.154   122.550  39.2% |---------------|
  CG: orthonormalize:               10.603     5.563   1.8% ||
   CG: overlap:                      3.221     3.221   1.0% |
   CG: overlap2:                     1.819     1.819   0.6% |
 Davidson:                          82.791    41.738  13.4% |----|
  calc. matrices:                   28.759    28.759   9.2% |---|
  diagonalize:                      10.346    10.346   3.3% ||
  rotate_psi:                        1.948     1.948   0.6% |
 Density:                            9.296     0.001   0.0% |
  Atomic density matrices:           0.123     0.123   0.0% |
  Mix:                               0.335     0.335   0.1% |
  Multipole moments:                 0.003     0.003   0.0% |
  Pseudo density:                    8.834     8.699   2.8% ||
   Symmetrize density:               0.135     0.135   0.0% |
 Hamiltonian:                       11.039     0.017   0.0% |
  Atomic:                            8.720     0.028   0.0% |
   XC Correction:                    8.693     8.693   2.8% ||
  Calculate atomic Hamiltonians:     0.202     0.202   0.1% |
  Communicate:                       0.000     0.000   0.0% |
  Poisson:                           0.007     0.007   0.0% |
  XC 3D grid:                        2.093     2.093   0.7% |
 Orthonormalize:                     0.680     0.022   0.0% |
  Band Layouts:                      0.023     0.005   0.0% |
   Inverse Cholesky:                 0.018     0.018   0.0% |
  calc_s_matrix:                     0.088     0.088   0.0% |
  projections:                       0.481     0.481   0.2% |
  rotate_psi:                        0.066     0.066   0.0% |
 Residuals:                          6.508     6.508   2.1% ||
 Subspace diag:                     50.512     0.873   0.3% |
  Band Layouts:                      3.968     0.246   0.1% |
   Diagonalize:                      3.539     3.539   1.1% |
   Distribute results:               0.183     0.183   0.1% |
  calc_h_matrix:                    42.996    42.996  13.8% |-----|
  rotate_psi:                        2.674     2.674   0.9% |
Set symmetry:                        0.015     0.015   0.0% |
Other:                               3.308     3.308   1.1% |
-----------------------------------------------------------
Total:                                       312.480 100.0%

Date: Sun Feb 14 09:03:36 2021
element =  Cd
struct =  hcp
kpts =  (8,8,4)
element =  Cd
configuration =  [Kr] 4d10 5s2 5p0
valence =  ['4d', '5s']
occupations =  {'4d': 10, '5s': 2}
nls =  4d
rNum =  600
lmax =  d
*******************************************
Starting confinement parameter optimization
Adjustable parameters and initial values:
  Cd_4d.r0 : 5.442411
  Cd_5s.r0 : 5.442411
  Cd_n.r0 : 8.163617
*******************************************

OPT_VAL: 5.442411242410353   5.442411242410353   8.16361686361553
VCONF:
  Cd_4d : PowerConfinement(r0=5.442411, s=2.000000)
  Cd_5s : PowerConfinement(r0=5.442411, s=2.000000)
  Cd_n : PowerConfinement(r0=8.163617, s=2.000000)
RESIDUAL: 0.0

OPT_VAL: 5.642411242410353   5.442411242410353   8.16361686361553
VCONF:
  Cd_4d : PowerConfinement(r0=5.642411, s=2.000000)
  Cd_5s : PowerConfinement(r0=5.442411, s=2.000000)
  Cd_n : PowerConfinement(r0=8.163617, s=2.000000)
RESIDUAL: 0.0

OPT_VAL: 5.442411242410353   5.642411242410353   8.16361686361553
VCONF:
  Cd_4d : PowerConfinement(r0=5.442411, s=2.000000)
  Cd_5s : PowerConfinement(r0=5.642411, s=2.000000)
  Cd_n : PowerConfinement(r0=8.163617, s=2.000000)
RESIDUAL: 0.0

OPT_VAL: 5.442411242410353   5.442411242410353   8.36361686361553
VCONF:
  Cd_4d : PowerConfinement(r0=5.442411, s=2.000000)
  Cd_5s : PowerConfinement(r0=5.442411, s=2.000000)
  Cd_n : PowerConfinement(r0=8.363617, s=2.000000)
RESIDUAL: 0.0

OPT_VAL: 5.467411242410353   5.442411242410353   8.16361686361553
VCONF:
  Cd_4d : PowerConfinement(r0=5.467411, s=2.000000)
  Cd_5s : PowerConfinement(r0=5.442411, s=2.000000)
  Cd_n : PowerConfinement(r0=8.163617, s=2.000000)
RESIDUAL: 0.0

OPT_VAL: 5.442411242410353   5.467411242410353   8.16361686361553
VCONF:
  Cd_4d : PowerConfinement(r0=5.442411, s=2.000000)
  Cd_5s : PowerConfinement(r0=5.467411, s=2.000000)
  Cd_n : PowerConfinement(r0=8.163617, s=2.000000)
RESIDUAL: 0.0

OPT_VAL: 5.442411242410353   5.442411242410353   8.18861686361553
VCONF:
  Cd_4d : PowerConfinement(r0=5.442411, s=2.000000)
  Cd_5s : PowerConfinement(r0=5.442411, s=2.000000)
  Cd_n : PowerConfinement(r0=8.188617, s=2.000000)
RESIDUAL: 0.0

OPT_VAL: 5.447411242410353   5.442411242410353   8.16361686361553
VCONF:
  Cd_4d : PowerConfinement(r0=5.447411, s=2.000000)
  Cd_5s : PowerConfinement(r0=5.442411, s=2.000000)
  Cd_n : PowerConfinement(r0=8.163617, s=2.000000)
RESIDUAL: 0.0

OPT_VAL: 5.442411242410353   5.447411242410353   8.16361686361553
VCONF:
  Cd_4d : PowerConfinement(r0=5.442411, s=2.000000)
  Cd_5s : PowerConfinement(r0=5.447411, s=2.000000)
  Cd_n : PowerConfinement(r0=8.163617, s=2.000000)
RESIDUAL: 0.0

OPT_VAL: 5.442411242410353   5.442411242410353   8.168616863615531
VCONF:
  Cd_4d : PowerConfinement(r0=5.442411, s=2.000000)
  Cd_5s : PowerConfinement(r0=5.442411, s=2.000000)
  Cd_n : PowerConfinement(r0=8.168617, s=2.000000)
RESIDUAL: 0.0

*******************************************
Optimization finished after 10 iterations
Adjustable parameters and final values:
  Cd_4d.r0 : 5.442411
  Cd_5s.r0 : 5.442411
  Cd_n.r0 : 8.163617
*******************************************

VCONF:
  Cd_4d : PowerConfinement(r0=5.442411, s=2.000000)
  Cd_5s : PowerConfinement(r0=5.442411, s=2.000000)
  Cd_n : PowerConfinement(r0=8.163617, s=2.000000)
