
     Program PWSCF v.6.0 (svn rev. 13079) starts on 25Feb2021 at 13:30:16 

     This program is part of the open-source Quantum ESPRESSO suite
     for quantum simulation of materials; please cite
         "P. Giannozzi et al., J. Phys.:Condens. Matter 21 395502 (2009);
          URL http://www.quantum-espresso.org", 
     in publications or presentations arising from this work. More details at
     http://www.quantum-espresso.org/quote

     Parallel version (MPI), running on     1 processors
     Reading input from espresso.pwi
Warning: card &IONS ignored
Warning: card / ignored
Warning: card &CELL ignored
Warning: card / ignored

     Current dimensions of program PWSCF are:
     Max number of different atomic species (ntypx) = 10
     Max number of k-points (npk) =  40000
     Max angular momentum in pseudopotentials (lmaxx) =  3
     Message from routine input:
     WARNING: "startingwfc" set to atomic+random may spoil restart

     Atomic positions and unit cell read from directory:
     ./pwscf.save/


     IMPORTANT: XC functional enforced from input :
     Exchange-correlation      = PBE ( 1  4  3  4 0 0)
     Any further DFT definition will be discarded
     Please, verify this is what you really want


     Subspace diagonalization in iterative solution of the eigenvalue problem:
     a serial algorithm will be used


     G-vector sticks info
     --------------------
     sticks:   dense  smooth     PW     G-vecs:    dense   smooth      PW
     Sum         341     277     95                 3997     2899     603



     bravais-lattice index     =            0
     lattice parameter (alat)  =       4.7624  a.u.
     unit-cell volume          =      83.1468 (a.u.)^3
     number of atoms/cell      =            1
     number of atomic types    =            1
     number of electrons       =        14.00
     number of Kohn-Sham states=           11
     kinetic-energy cutoff     =      40.0000  Ry
     charge density cutoff     =     200.0000  Ry
     Exchange-correlation      = PBE ( 1  4  3  4 0 0)

     celldm(1)=   4.762363  celldm(2)=   0.000000  celldm(3)=   0.000000
     celldm(4)=   0.000000  celldm(5)=   0.000000  celldm(6)=   0.000000

     crystal axes: (cart. coord. in units of alat)
               a(1) = (  -0.577350   0.577350   0.577350 )  
               a(2) = (   0.577350  -0.577350   0.577350 )  
               a(3) = (   0.577350   0.577350  -0.577350 )  

     reciprocal axes: (cart. coord. in units 2 pi/alat)
               b(1) = (  0.000000  0.866025  0.866025 )  
               b(2) = (  0.866025  0.000000  0.866025 )  
               b(3) = (  0.866025  0.866025  0.000000 )  


     PseudoPot. # 1 for Cr read from file:
     /home/inukai/tango/tests/1element/qe_fit_v2_Cr/../pseudo/cr_pbe_v1.5.uspp.F.UPF
     MD5 check sum: 0d52af634a40206e4dee301ad30da4bf
     Pseudo is Ultrasoft + core correction, Zval = 14.0
     Generated by new atomic code, or converted to UPF format
     Using radial grid of  857 points,  6 beta functions with: 
                l(1) =   0
                l(2) =   0
                l(3) =   1
                l(4) =   1
                l(5) =   2
                l(6) =   2
     Q(r) pseudized with  8 coefficients,  rinner =    0.950   0.950   0.950
                                                       0.950   0.950

     atomic species   valence    mass     pseudopotential
        Cr            14.00    51.99610     Cr( 1.00)

     48 Sym. Ops., with inversion, found


                                    s                        frac. trans.

      isym =  1     identity                                     

 cryst.   s( 1) = (     1          0          0      )
                  (     0          1          0      )
                  (     0          0          1      )

 cart.    s( 1) = (  1.0000000  0.0000000  0.0000000 )
                  (  0.0000000  1.0000000  0.0000000 )
                  (  0.0000000  0.0000000  1.0000000 )


      isym =  2     180 deg rotation - cart. axis [0,0,1]        

 cryst.   s( 2) = (     0          1          0      )
                  (     1          0          0      )
                  (    -1         -1         -1      )

 cart.    s( 2) = ( -1.0000000  0.0000000  0.0000000 )
                  (  0.0000000 -1.0000000  0.0000000 )
                  (  0.0000000  0.0000000  1.0000000 )


      isym =  3     180 deg rotation - cart. axis [0,1,0]        

 cryst.   s( 3) = (     0          0          1      )
                  (    -1         -1         -1      )
                  (     1          0          0      )

 cart.    s( 3) = ( -1.0000000  0.0000000  0.0000000 )
                  (  0.0000000  1.0000000  0.0000000 )
                  (  0.0000000  0.0000000 -1.0000000 )


      isym =  4     180 deg rotation - cart. axis [1,0,0]        

 cryst.   s( 4) = (    -1         -1         -1      )
                  (     0          0          1      )
                  (     0          1          0      )

 cart.    s( 4) = (  1.0000000  0.0000000  0.0000000 )
                  (  0.0000000 -1.0000000  0.0000000 )
                  (  0.0000000  0.0000000 -1.0000000 )


      isym =  5     180 deg rotation - cart. axis [1,1,0]        

 cryst.   s( 5) = (    -1          0          0      )
                  (     0         -1          0      )
                  (     1          1          1      )

 cart.    s( 5) = (  0.0000000  1.0000000  0.0000000 )
                  (  1.0000000  0.0000000  0.0000000 )
                  (  0.0000000  0.0000000 -1.0000000 )


      isym =  6     180 deg rotation - cart. axis [1,-1,0]       

 cryst.   s( 6) = (     0         -1          0      )
                  (    -1          0          0      )
                  (     0          0         -1      )

 cart.    s( 6) = (  0.0000000 -1.0000000  0.0000000 )
                  ( -1.0000000  0.0000000  0.0000000 )
                  (  0.0000000  0.0000000 -1.0000000 )


      isym =  7      90 deg rotation - cart. axis [0,0,-1]       

 cryst.   s( 7) = (     1          1          1      )
                  (     0          0         -1      )
                  (    -1          0          0      )

 cart.    s( 7) = (  0.0000000  1.0000000  0.0000000 )
                  ( -1.0000000  0.0000000  0.0000000 )
                  (  0.0000000  0.0000000  1.0000000 )


      isym =  8      90 deg rotation - cart. axis [0,0,1]        

 cryst.   s( 8) = (     0          0         -1      )
                  (     1          1          1      )
                  (     0         -1          0      )

 cart.    s( 8) = (  0.0000000 -1.0000000  0.0000000 )
                  (  1.0000000  0.0000000  0.0000000 )
                  (  0.0000000  0.0000000  1.0000000 )


      isym =  9     180 deg rotation - cart. axis [1,0,1]        

 cryst.   s( 9) = (    -1          0          0      )
                  (     1          1          1      )
                  (     0          0         -1      )

 cart.    s( 9) = (  0.0000000  0.0000000  1.0000000 )
                  (  0.0000000 -1.0000000  0.0000000 )
                  (  1.0000000  0.0000000  0.0000000 )


      isym = 10     180 deg rotation - cart. axis [-1,0,1]       

 cryst.   s(10) = (     0          0         -1      )
                  (     0         -1          0      )
                  (    -1          0          0      )

 cart.    s(10) = (  0.0000000  0.0000000 -1.0000000 )
                  (  0.0000000 -1.0000000  0.0000000 )
                  ( -1.0000000  0.0000000  0.0000000 )


      isym = 11      90 deg rotation - cart. axis [0,1,0]        

 cryst.   s(11) = (     1          1          1      )
                  (    -1          0          0      )
                  (     0         -1          0      )

 cart.    s(11) = (  0.0000000  0.0000000  1.0000000 )
                  (  0.0000000  1.0000000  0.0000000 )
                  ( -1.0000000  0.0000000  0.0000000 )


      isym = 12      90 deg rotation - cart. axis [0,-1,0]       

 cryst.   s(12) = (     0         -1          0      )
                  (     0          0         -1      )
                  (     1          1          1      )

 cart.    s(12) = (  0.0000000  0.0000000 -1.0000000 )
                  (  0.0000000  1.0000000  0.0000000 )
                  (  1.0000000  0.0000000  0.0000000 )


      isym = 13     180 deg rotation - cart. axis [0,1,1]        

 cryst.   s(13) = (     1          1          1      )
                  (     0         -1          0      )
                  (     0          0         -1      )

 cart.    s(13) = ( -1.0000000  0.0000000  0.0000000 )
                  (  0.0000000  0.0000000  1.0000000 )
                  (  0.0000000  1.0000000  0.0000000 )


      isym = 14     180 deg rotation - cart. axis [0,1,-1]       

 cryst.   s(14) = (    -1          0          0      )
                  (     0          0         -1      )
                  (     0         -1          0      )

 cart.    s(14) = ( -1.0000000  0.0000000  0.0000000 )
                  (  0.0000000  0.0000000 -1.0000000 )
                  (  0.0000000 -1.0000000  0.0000000 )


      isym = 15      90 deg rotation - cart. axis [-1,0,0]       

 cryst.   s(15) = (     0         -1          0      )
                  (     1          1          1      )
                  (    -1          0          0      )

 cart.    s(15) = (  1.0000000  0.0000000  0.0000000 )
                  (  0.0000000  0.0000000  1.0000000 )
                  (  0.0000000 -1.0000000  0.0000000 )


      isym = 16      90 deg rotation - cart. axis [1,0,0]        

 cryst.   s(16) = (     0          0         -1      )
                  (    -1          0          0      )
                  (     1          1          1      )

 cart.    s(16) = (  1.0000000  0.0000000  0.0000000 )
                  (  0.0000000  0.0000000 -1.0000000 )
                  (  0.0000000  1.0000000  0.0000000 )


      isym = 17     120 deg rotation - cart. axis [-1,-1,-1]     

 cryst.   s(17) = (     0          0          1      )
                  (     1          0          0      )
                  (     0          1          0      )

 cart.    s(17) = (  0.0000000  1.0000000  0.0000000 )
                  (  0.0000000  0.0000000  1.0000000 )
                  (  1.0000000  0.0000000  0.0000000 )


      isym = 18     120 deg rotation - cart. axis [-1,1,1]       

 cryst.   s(18) = (     1          0          0      )
                  (     0          0          1      )
                  (    -1         -1         -1      )

 cart.    s(18) = (  0.0000000 -1.0000000  0.0000000 )
                  (  0.0000000  0.0000000  1.0000000 )
                  ( -1.0000000  0.0000000  0.0000000 )


      isym = 19     120 deg rotation - cart. axis [1,1,-1]       

 cryst.   s(19) = (     0          1          0      )
                  (    -1         -1         -1      )
                  (     0          0          1      )

 cart.    s(19) = (  0.0000000  1.0000000  0.0000000 )
                  (  0.0000000  0.0000000 -1.0000000 )
                  ( -1.0000000  0.0000000  0.0000000 )


      isym = 20     120 deg rotation - cart. axis [1,-1,1]       

 cryst.   s(20) = (    -1         -1         -1      )
                  (     0          1          0      )
                  (     1          0          0      )

 cart.    s(20) = (  0.0000000 -1.0000000  0.0000000 )
                  (  0.0000000  0.0000000 -1.0000000 )
                  (  1.0000000  0.0000000  0.0000000 )


      isym = 21     120 deg rotation - cart. axis [1,1,1]        

 cryst.   s(21) = (     0          1          0      )
                  (     0          0          1      )
                  (     1          0          0      )

 cart.    s(21) = (  0.0000000  0.0000000  1.0000000 )
                  (  1.0000000  0.0000000  0.0000000 )
                  (  0.0000000  1.0000000  0.0000000 )


      isym = 22     120 deg rotation - cart. axis [-1,1,-1]      

 cryst.   s(22) = (     0          0          1      )
                  (     0          1          0      )
                  (    -1         -1         -1      )

 cart.    s(22) = (  0.0000000  0.0000000  1.0000000 )
                  ( -1.0000000  0.0000000  0.0000000 )
                  (  0.0000000 -1.0000000  0.0000000 )


      isym = 23     120 deg rotation - cart. axis [1,-1,-1]      

 cryst.   s(23) = (     1          0          0      )
                  (    -1         -1         -1      )
                  (     0          1          0      )

 cart.    s(23) = (  0.0000000  0.0000000 -1.0000000 )
                  ( -1.0000000  0.0000000  0.0000000 )
                  (  0.0000000  1.0000000  0.0000000 )


      isym = 24     120 deg rotation - cart. axis [-1,-1,1]      

 cryst.   s(24) = (    -1         -1         -1      )
                  (     1          0          0      )
                  (     0          0          1      )

 cart.    s(24) = (  0.0000000  0.0000000 -1.0000000 )
                  (  1.0000000  0.0000000  0.0000000 )
                  (  0.0000000 -1.0000000  0.0000000 )


      isym = 25     inversion                                    

 cryst.   s(25) = (    -1          0          0      )
                  (     0         -1          0      )
                  (     0          0         -1      )

 cart.    s(25) = ( -1.0000000  0.0000000  0.0000000 )
                  (  0.0000000 -1.0000000  0.0000000 )
                  (  0.0000000  0.0000000 -1.0000000 )


      isym = 26     inv. 180 deg rotation - cart. axis [0,0,1]   

 cryst.   s(26) = (     0         -1          0      )
                  (    -1          0          0      )
                  (     1          1          1      )

 cart.    s(26) = (  1.0000000  0.0000000  0.0000000 )
                  (  0.0000000  1.0000000  0.0000000 )
                  (  0.0000000  0.0000000 -1.0000000 )


      isym = 27     inv. 180 deg rotation - cart. axis [0,1,0]   

 cryst.   s(27) = (     0          0         -1      )
                  (     1          1          1      )
                  (    -1          0          0      )

 cart.    s(27) = (  1.0000000  0.0000000  0.0000000 )
                  (  0.0000000 -1.0000000  0.0000000 )
                  (  0.0000000  0.0000000  1.0000000 )


      isym = 28     inv. 180 deg rotation - cart. axis [1,0,0]   

 cryst.   s(28) = (     1          1          1      )
                  (     0          0         -1      )
                  (     0         -1          0      )

 cart.    s(28) = ( -1.0000000  0.0000000  0.0000000 )
                  (  0.0000000  1.0000000  0.0000000 )
                  (  0.0000000  0.0000000  1.0000000 )


      isym = 29     inv. 180 deg rotation - cart. axis [1,1,0]   

 cryst.   s(29) = (     1          0          0      )
                  (     0          1          0      )
                  (    -1         -1         -1      )

 cart.    s(29) = (  0.0000000 -1.0000000  0.0000000 )
                  ( -1.0000000  0.0000000  0.0000000 )
                  (  0.0000000  0.0000000  1.0000000 )


      isym = 30     inv. 180 deg rotation - cart. axis [1,-1,0]  

 cryst.   s(30) = (     0          1          0      )
                  (     1          0          0      )
                  (     0          0          1      )

 cart.    s(30) = (  0.0000000  1.0000000  0.0000000 )
                  (  1.0000000  0.0000000  0.0000000 )
                  (  0.0000000  0.0000000  1.0000000 )


      isym = 31     inv.  90 deg rotation - cart. axis [0,0,-1]  

 cryst.   s(31) = (    -1         -1         -1      )
                  (     0          0          1      )
                  (     1          0          0      )

 cart.    s(31) = (  0.0000000 -1.0000000  0.0000000 )
                  (  1.0000000  0.0000000  0.0000000 )
                  (  0.0000000  0.0000000 -1.0000000 )


      isym = 32     inv.  90 deg rotation - cart. axis [0,0,1]   

 cryst.   s(32) = (     0          0          1      )
                  (    -1         -1         -1      )
                  (     0          1          0      )

 cart.    s(32) = (  0.0000000  1.0000000  0.0000000 )
                  ( -1.0000000  0.0000000  0.0000000 )
                  (  0.0000000  0.0000000 -1.0000000 )


      isym = 33     inv. 180 deg rotation - cart. axis [1,0,1]   

 cryst.   s(33) = (     1          0          0      )
                  (    -1         -1         -1      )
                  (     0          0          1      )

 cart.    s(33) = (  0.0000000  0.0000000 -1.0000000 )
                  (  0.0000000  1.0000000  0.0000000 )
                  ( -1.0000000  0.0000000  0.0000000 )


      isym = 34     inv. 180 deg rotation - cart. axis [-1,0,1]  

 cryst.   s(34) = (     0          0          1      )
                  (     0          1          0      )
                  (     1          0          0      )

 cart.    s(34) = (  0.0000000  0.0000000  1.0000000 )
                  (  0.0000000  1.0000000  0.0000000 )
                  (  1.0000000  0.0000000  0.0000000 )


      isym = 35     inv.  90 deg rotation - cart. axis [0,1,0]   

 cryst.   s(35) = (    -1         -1         -1      )
                  (     1          0          0      )
                  (     0          1          0      )

 cart.    s(35) = (  0.0000000  0.0000000 -1.0000000 )
                  (  0.0000000 -1.0000000  0.0000000 )
                  (  1.0000000  0.0000000  0.0000000 )


      isym = 36     inv.  90 deg rotation - cart. axis [0,-1,0]  

 cryst.   s(36) = (     0          1          0      )
                  (     0          0          1      )
                  (    -1         -1         -1      )

 cart.    s(36) = (  0.0000000  0.0000000  1.0000000 )
                  (  0.0000000 -1.0000000  0.0000000 )
                  ( -1.0000000  0.0000000  0.0000000 )


      isym = 37     inv. 180 deg rotation - cart. axis [0,1,1]   

 cryst.   s(37) = (    -1         -1         -1      )
                  (     0          1          0      )
                  (     0          0          1      )

 cart.    s(37) = (  1.0000000  0.0000000  0.0000000 )
                  (  0.0000000  0.0000000 -1.0000000 )
                  (  0.0000000 -1.0000000  0.0000000 )


      isym = 38     inv. 180 deg rotation - cart. axis [0,1,-1]  

 cryst.   s(38) = (     1          0          0      )
                  (     0          0          1      )
                  (     0          1          0      )

 cart.    s(38) = (  1.0000000  0.0000000  0.0000000 )
                  (  0.0000000  0.0000000  1.0000000 )
                  (  0.0000000  1.0000000  0.0000000 )


      isym = 39     inv.  90 deg rotation - cart. axis [-1,0,0]  

 cryst.   s(39) = (     0          1          0      )
                  (    -1         -1         -1      )
                  (     1          0          0      )

 cart.    s(39) = ( -1.0000000  0.0000000  0.0000000 )
                  (  0.0000000  0.0000000 -1.0000000 )
                  (  0.0000000  1.0000000  0.0000000 )


      isym = 40     inv.  90 deg rotation - cart. axis [1,0,0]   

 cryst.   s(40) = (     0          0          1      )
                  (     1          0          0      )
                  (    -1         -1         -1      )

 cart.    s(40) = ( -1.0000000  0.0000000  0.0000000 )
                  (  0.0000000  0.0000000  1.0000000 )
                  (  0.0000000 -1.0000000  0.0000000 )


      isym = 41     inv. 120 deg rotation - cart. axis [-1,-1,-1]

 cryst.   s(41) = (     0          0         -1      )
                  (    -1          0          0      )
                  (     0         -1          0      )

 cart.    s(41) = (  0.0000000 -1.0000000  0.0000000 )
                  (  0.0000000  0.0000000 -1.0000000 )
                  ( -1.0000000  0.0000000  0.0000000 )


      isym = 42     inv. 120 deg rotation - cart. axis [-1,1,1]  

 cryst.   s(42) = (    -1          0          0      )
                  (     0          0         -1      )
                  (     1          1          1      )

 cart.    s(42) = (  0.0000000  1.0000000  0.0000000 )
                  (  0.0000000  0.0000000 -1.0000000 )
                  (  1.0000000  0.0000000  0.0000000 )


      isym = 43     inv. 120 deg rotation - cart. axis [1,1,-1]  

 cryst.   s(43) = (     0         -1          0      )
                  (     1          1          1      )
                  (     0          0         -1      )

 cart.    s(43) = (  0.0000000 -1.0000000  0.0000000 )
                  (  0.0000000  0.0000000  1.0000000 )
                  (  1.0000000  0.0000000  0.0000000 )


      isym = 44     inv. 120 deg rotation - cart. axis [1,-1,1]  

 cryst.   s(44) = (     1          1          1      )
                  (     0         -1          0      )
                  (    -1          0          0      )

 cart.    s(44) = (  0.0000000  1.0000000  0.0000000 )
                  (  0.0000000  0.0000000  1.0000000 )
                  ( -1.0000000  0.0000000  0.0000000 )


      isym = 45     inv. 120 deg rotation - cart. axis [1,1,1]   

 cryst.   s(45) = (     0         -1          0      )
                  (     0          0         -1      )
                  (    -1          0          0      )

 cart.    s(45) = (  0.0000000  0.0000000 -1.0000000 )
                  ( -1.0000000  0.0000000  0.0000000 )
                  (  0.0000000 -1.0000000  0.0000000 )


      isym = 46     inv. 120 deg rotation - cart. axis [-1,1,-1] 

 cryst.   s(46) = (     0          0         -1      )
                  (     0         -1          0      )
                  (     1          1          1      )

 cart.    s(46) = (  0.0000000  0.0000000 -1.0000000 )
                  (  1.0000000  0.0000000  0.0000000 )
                  (  0.0000000  1.0000000  0.0000000 )


      isym = 47     inv. 120 deg rotation - cart. axis [1,-1,-1] 

 cryst.   s(47) = (    -1          0          0      )
                  (     1          1          1      )
                  (     0         -1          0      )

 cart.    s(47) = (  0.0000000  0.0000000  1.0000000 )
                  (  1.0000000  0.0000000  0.0000000 )
                  (  0.0000000 -1.0000000  0.0000000 )


      isym = 48     inv. 120 deg rotation - cart. axis [-1,-1,1] 

 cryst.   s(48) = (     1          1          1      )
                  (    -1          0          0      )
                  (     0          0         -1      )

 cart.    s(48) = (  0.0000000  0.0000000  1.0000000 )
                  ( -1.0000000  0.0000000  0.0000000 )
                  (  0.0000000  1.0000000  0.0000000 )


   Cartesian axes

     site n.     atom                  positions (alat units)
         1           Cr  tau(   1) = (   0.0000000   0.0000000   0.0000000  )

   Crystallographic axes

     site n.     atom                  positions (cryst. coord.)
         1           Cr  tau(   1) = (  0.0000000  0.0000000  0.0000000  )

     number of k points=    50  gaussian smearing, width (Ry)=  0.0010
                       cart. coord. in units 2pi/alat
        k(    1) = (   0.0000000   0.0000000   0.0000000), wk =   0.0400000
        k(    2) = (   0.0000000   0.0618590   0.0000000), wk =   0.0400000
        k(    3) = (   0.0000000   0.1237179   0.0000000), wk =   0.0400000
        k(    4) = (   0.0000000   0.1855769   0.0000000), wk =   0.0400000
        k(    5) = (   0.0000000   0.2474358   0.0000000), wk =   0.0400000
        k(    6) = (   0.0000000   0.3092948   0.0000000), wk =   0.0400000
        k(    7) = (   0.0000000   0.3711537   0.0000000), wk =   0.0400000
        k(    8) = (   0.0000000   0.4330127   0.0000000), wk =   0.0400000
        k(    9) = (   0.0000000   0.4948717   0.0000000), wk =   0.0400000
        k(   10) = (   0.0000000   0.5567306   0.0000000), wk =   0.0400000
        k(   11) = (   0.0000000   0.6185896   0.0000000), wk =   0.0400000
        k(   12) = (   0.0000000   0.6804485   0.0000000), wk =   0.0400000
        k(   13) = (   0.0000000   0.7423075   0.0000000), wk =   0.0400000
        k(   14) = (   0.0000000   0.8041664   0.0000000), wk =   0.0400000
        k(   15) = (   0.0000000   0.8660254   0.0000000), wk =   0.0400000
        k(   16) = (   0.0433013   0.8227241   0.0000000), wk =   0.0400000
        k(   17) = (   0.0866025   0.7794229   0.0000000), wk =   0.0400000
        k(   18) = (   0.1299038   0.7361216   0.0000000), wk =   0.0400000
        k(   19) = (   0.1732051   0.6928203   0.0000000), wk =   0.0400000
        k(   20) = (   0.2165064   0.6495191   0.0000000), wk =   0.0400000
        k(   21) = (   0.2598076   0.6062178   0.0000000), wk =   0.0400000
        k(   22) = (   0.3031089   0.5629165   0.0000000), wk =   0.0400000
        k(   23) = (   0.3464102   0.5196152   0.0000000), wk =   0.0400000
        k(   24) = (   0.3897114   0.4763140   0.0000000), wk =   0.0400000
        k(   25) = (   0.4330127   0.4330127   0.0000000), wk =   0.0400000
        k(   26) = (   0.3936479   0.3936479   0.0000000), wk =   0.0400000
        k(   27) = (   0.3542831   0.3542831   0.0000000), wk =   0.0400000
        k(   28) = (   0.3149183   0.3149183   0.0000000), wk =   0.0400000
        k(   29) = (   0.2755535   0.2755535   0.0000000), wk =   0.0400000
        k(   30) = (   0.2361887   0.2361887   0.0000000), wk =   0.0400000
        k(   31) = (   0.1968240   0.1968240   0.0000000), wk =   0.0400000
        k(   32) = (   0.1574592   0.1574592   0.0000000), wk =   0.0400000
        k(   33) = (   0.1180944   0.1180944   0.0000000), wk =   0.0400000
        k(   34) = (   0.0787296   0.0787296   0.0000000), wk =   0.0400000
        k(   35) = (   0.0393648   0.0393648   0.0000000), wk =   0.0400000
        k(   36) = (   0.0000000   0.0000000   0.0000000), wk =   0.0400000
        k(   37) = (   0.0309295   0.0309295   0.0309295), wk =   0.0400000
        k(   38) = (   0.0618590   0.0618590   0.0618590), wk =   0.0400000
        k(   39) = (   0.0927884   0.0927884   0.0927884), wk =   0.0400000
        k(   40) = (   0.1237179   0.1237179   0.1237179), wk =   0.0400000
        k(   41) = (   0.1546474   0.1546474   0.1546474), wk =   0.0400000
        k(   42) = (   0.1855769   0.1855769   0.1855769), wk =   0.0400000
        k(   43) = (   0.2165064   0.2165064   0.2165064), wk =   0.0400000
        k(   44) = (   0.2474358   0.2474358   0.2474358), wk =   0.0400000
        k(   45) = (   0.2783653   0.2783653   0.2783653), wk =   0.0400000
        k(   46) = (   0.3092948   0.3092948   0.3092948), wk =   0.0400000
        k(   47) = (   0.3402243   0.3402243   0.3402243), wk =   0.0400000
        k(   48) = (   0.3711537   0.3711537   0.3711537), wk =   0.0400000
        k(   49) = (   0.4020832   0.4020832   0.4020832), wk =   0.0400000
        k(   50) = (   0.4330127   0.4330127   0.4330127), wk =   0.0400000

                       cryst. coord.
        k(    1) = (   0.0000000   0.0000000   0.0000000), wk =   0.0400000
        k(    2) = (   0.0357143  -0.0357143   0.0357143), wk =   0.0400000
        k(    3) = (   0.0714286  -0.0714286   0.0714286), wk =   0.0400000
        k(    4) = (   0.1071429  -0.1071429   0.1071429), wk =   0.0400000
        k(    5) = (   0.1428571  -0.1428571   0.1428571), wk =   0.0400000
        k(    6) = (   0.1785714  -0.1785714   0.1785714), wk =   0.0400000
        k(    7) = (   0.2142857  -0.2142857   0.2142857), wk =   0.0400000
        k(    8) = (   0.2500000  -0.2500000   0.2500000), wk =   0.0400000
        k(    9) = (   0.2857143  -0.2857143   0.2857143), wk =   0.0400000
        k(   10) = (   0.3214286  -0.3214286   0.3214286), wk =   0.0400000
        k(   11) = (   0.3571429  -0.3571429   0.3571429), wk =   0.0400000
        k(   12) = (   0.3928571  -0.3928571   0.3928571), wk =   0.0400000
        k(   13) = (   0.4285714  -0.4285714   0.4285714), wk =   0.0400000
        k(   14) = (   0.4642857  -0.4642857   0.4642857), wk =   0.0400000
        k(   15) = (   0.5000000  -0.5000000   0.5000000), wk =   0.0400000
        k(   16) = (   0.4500000  -0.4500000   0.5000000), wk =   0.0400000
        k(   17) = (   0.4000000  -0.4000000   0.5000000), wk =   0.0400000
        k(   18) = (   0.3500000  -0.3500000   0.5000000), wk =   0.0400000
        k(   19) = (   0.3000000  -0.3000000   0.5000000), wk =   0.0400000
        k(   20) = (   0.2500000  -0.2500000   0.5000000), wk =   0.0400000
        k(   21) = (   0.2000000  -0.2000000   0.5000000), wk =   0.0400000
        k(   22) = (   0.1500000  -0.1500000   0.5000000), wk =   0.0400000
        k(   23) = (   0.1000000  -0.1000000   0.5000000), wk =   0.0400000
        k(   24) = (   0.0500000  -0.0500000   0.5000000), wk =   0.0400000
        k(   25) = (   0.0000000   0.0000000   0.5000000), wk =   0.0400000
        k(   26) = (   0.0000000   0.0000000   0.4545455), wk =   0.0400000
        k(   27) = (   0.0000000   0.0000000   0.4090909), wk =   0.0400000
        k(   28) = (   0.0000000   0.0000000   0.3636364), wk =   0.0400000
        k(   29) = (   0.0000000   0.0000000   0.3181818), wk =   0.0400000
        k(   30) = (   0.0000000   0.0000000   0.2727273), wk =   0.0400000
        k(   31) = (   0.0000000   0.0000000   0.2272727), wk =   0.0400000
        k(   32) = (   0.0000000   0.0000000   0.1818182), wk =   0.0400000
        k(   33) = (   0.0000000   0.0000000   0.1363636), wk =   0.0400000
        k(   34) = (   0.0000000   0.0000000   0.0909091), wk =   0.0400000
        k(   35) = (   0.0000000   0.0000000   0.0454545), wk =   0.0400000
        k(   36) = (   0.0000000   0.0000000   0.0000000), wk =   0.0400000
        k(   37) = (   0.0178571   0.0178571   0.0178571), wk =   0.0400000
        k(   38) = (   0.0357143   0.0357143   0.0357143), wk =   0.0400000
        k(   39) = (   0.0535714   0.0535714   0.0535714), wk =   0.0400000
        k(   40) = (   0.0714286   0.0714286   0.0714286), wk =   0.0400000
        k(   41) = (   0.0892857   0.0892857   0.0892857), wk =   0.0400000
        k(   42) = (   0.1071429   0.1071429   0.1071429), wk =   0.0400000
        k(   43) = (   0.1250000   0.1250000   0.1250000), wk =   0.0400000
        k(   44) = (   0.1428571   0.1428571   0.1428571), wk =   0.0400000
        k(   45) = (   0.1607143   0.1607143   0.1607143), wk =   0.0400000
        k(   46) = (   0.1785714   0.1785714   0.1785714), wk =   0.0400000
        k(   47) = (   0.1964286   0.1964286   0.1964286), wk =   0.0400000
        k(   48) = (   0.2142857   0.2142857   0.2142857), wk =   0.0400000
        k(   49) = (   0.2321429   0.2321429   0.2321429), wk =   0.0400000
        k(   50) = (   0.2500000   0.2500000   0.2500000), wk =   0.0400000

     Dense  grid:     3997 G-vectors     FFT dimensions: (  24,  24,  24)

     Smooth grid:     2899 G-vectors     FFT dimensions: (  20,  20,  20)

     Estimated max dynamical RAM per process >       5.07Mb

     Check: negative/imaginary core charge=   -0.000015    0.000000

     The potential is recalculated from file :
     ./pwscf.save/charge-density.dat


     negative rho (up, down):  2.049E-03 0.000E+00
     Starting wfc are   10 randomized atomic wfcs +    1 random wfc

     Band Structure Calculation
     Davidson diagonalization with overlap

     Computing kpt #:     1
     total cpu time spent up to now is        0.6 secs

     Computing kpt #:     2
     total cpu time spent up to now is        0.7 secs

     Computing kpt #:     3
     total cpu time spent up to now is        0.7 secs

     Computing kpt #:     4
     total cpu time spent up to now is        0.8 secs

     Computing kpt #:     5
     total cpu time spent up to now is        0.8 secs

     Computing kpt #:     6
     total cpu time spent up to now is        0.9 secs

     Computing kpt #:     7
     total cpu time spent up to now is        0.9 secs

     Computing kpt #:     8
     total cpu time spent up to now is        1.0 secs

     Computing kpt #:     9
     total cpu time spent up to now is        1.0 secs

     Computing kpt #:    10
     total cpu time spent up to now is        1.1 secs

     Computing kpt #:    11
     total cpu time spent up to now is        1.1 secs

     Computing kpt #:    12
     total cpu time spent up to now is        1.2 secs

     Computing kpt #:    13
     total cpu time spent up to now is        1.2 secs

     Computing kpt #:    14
     total cpu time spent up to now is        1.3 secs

     Computing kpt #:    15
     total cpu time spent up to now is        1.3 secs

     Computing kpt #:    16
     total cpu time spent up to now is        1.4 secs

     Computing kpt #:    17
     total cpu time spent up to now is        1.4 secs

     Computing kpt #:    18
     total cpu time spent up to now is        1.5 secs

     Computing kpt #:    19
     total cpu time spent up to now is        1.5 secs

     Computing kpt #:    20
     total cpu time spent up to now is        1.6 secs

     Computing kpt #:    21
     total cpu time spent up to now is        1.6 secs

     Computing kpt #:    22
     total cpu time spent up to now is        1.7 secs

     Computing kpt #:    23
     total cpu time spent up to now is        1.7 secs

     Computing kpt #:    24
     total cpu time spent up to now is        1.8 secs

     Computing kpt #:    25
     total cpu time spent up to now is        1.8 secs

     Computing kpt #:    26
     total cpu time spent up to now is        1.8 secs

     Computing kpt #:    27
     total cpu time spent up to now is        1.9 secs

     Computing kpt #:    28
     total cpu time spent up to now is        1.9 secs

     Computing kpt #:    29
     total cpu time spent up to now is        2.0 secs

     Computing kpt #:    30
     total cpu time spent up to now is        2.0 secs

     Computing kpt #:    31
     total cpu time spent up to now is        2.1 secs

     Computing kpt #:    32
     total cpu time spent up to now is        2.2 secs

     Computing kpt #:    33
     total cpu time spent up to now is        2.2 secs

     Computing kpt #:    34
     total cpu time spent up to now is        2.3 secs

     Computing kpt #:    35
     total cpu time spent up to now is        2.4 secs

     Computing kpt #:    36
     total cpu time spent up to now is        2.4 secs

     Computing kpt #:    37
     total cpu time spent up to now is        2.5 secs

     Computing kpt #:    38
     total cpu time spent up to now is        2.5 secs

     Computing kpt #:    39
     total cpu time spent up to now is        2.6 secs

     Computing kpt #:    40
     total cpu time spent up to now is        2.7 secs

     Computing kpt #:    41
     total cpu time spent up to now is        2.7 secs

     Computing kpt #:    42
     total cpu time spent up to now is        2.8 secs

     Computing kpt #:    43
     total cpu time spent up to now is        2.8 secs

     Computing kpt #:    44
     total cpu time spent up to now is        2.9 secs

     Computing kpt #:    45
     total cpu time spent up to now is        2.9 secs

     Computing kpt #:    46
     total cpu time spent up to now is        3.0 secs

     Computing kpt #:    47
     total cpu time spent up to now is        3.0 secs

     Computing kpt #:    48
     total cpu time spent up to now is        3.1 secs

     Computing kpt #:    49
     total cpu time spent up to now is        3.1 secs

     Computing kpt #:    50
     total cpu time spent up to now is        3.2 secs

     ethr =  7.14E-10,  avg # of iterations =  9.3

     total cpu time spent up to now is        3.2 secs

     End of band structure calculation

          k = 0.0000 0.0000 0.0000 (   369 PWs)   bands (ev):

   -53.8596 -24.7247 -24.7247 -24.7247  10.4082  17.2250  17.2250  17.2250
    19.1129  19.1129  39.8527

          k = 0.0000 0.0619 0.0000 (   361 PWs)   bands (ev):

   -53.8556 -24.7381 -24.7308 -24.7308  10.5143  17.2202  17.2202  17.2601
    19.0417  19.1400  39.4677

          k = 0.0000 0.1237 0.0000 (   361 PWs)   bands (ev):

   -53.8439 -24.7765 -24.7489 -24.7489  10.8268  17.2108  17.2108  17.3639
    18.8327  19.2183  38.6194

          k = 0.0000 0.1856 0.0000 (   357 PWs)   bands (ev):

   -53.8254 -24.8350 -24.7782 -24.7782  11.3276  17.2107  17.2107  17.5327
    18.4994  19.3395  37.6971

          k = 0.0000 0.2474 0.0000 (   349 PWs)   bands (ev):

   -53.8012 -24.9063 -24.8176 -24.8176  11.9839  17.2391  17.2391  17.7600
    18.0634  19.4949  36.8689

          k = 0.0000 0.3093 0.0000 (   353 PWs)   bands (ev):

   -53.7730 -24.9825 -24.8653 -24.8653  12.7431  17.3164  17.3164  17.5527
    18.0365  19.6861  36.1846

          k = 0.0000 0.3712 0.0000 (   353 PWs)   bands (ev):

   -53.7425 -25.0557 -24.9192 -24.9192  13.5224  16.9988  17.4607  17.4607
    18.3507  19.9439  35.6475

          k = 0.0000 0.4330 0.0000 (   354 PWs)   bands (ev):

   -53.7114 -25.1197 -24.9767 -24.9767  14.2020  16.4337  17.6849  17.6849
    18.6885  20.3482  35.2422

          k = 0.0000 0.4949 0.0000 (   346 PWs)   bands (ev):

   -53.6815 -25.1704 -25.0350 -25.0350  14.6510  15.8869  17.9950  17.9950
    19.0337  21.0123  34.0069

          k = 0.0000 0.5567 0.0000 (   358 PWs)   bands (ev):

   -53.6541 -25.2064 -25.0912 -25.0912  14.8093  15.3842  18.3878  18.3878
    19.3687  22.0030  32.5540

          k = 0.0000 0.6186 0.0000 (   354 PWs)   bands (ev):

   -53.6304 -25.2287 -25.1421 -25.1421  14.7333  14.9465  18.8481  18.8481
    19.6754  23.2834  31.1905

          k = 0.0000 0.6804 0.0000 (   358 PWs)   bands (ev):

   -53.6113 -25.2400 -25.1850 -25.1850  14.5369  14.5904  19.3427  19.3427
    19.9361  24.7471  29.9734

          k = 0.0000 0.7423 0.0000 (   370 PWs)   bands (ev):

   -53.5973 -25.2442 -25.2175 -25.2175  14.3245  14.3278  19.8128  19.8128
    20.1351  26.2436  28.9774

          k = 0.0000 0.8042 0.0000 (   370 PWs)   bands (ev):

   -53.5888 -25.2448 -25.2378 -25.2378  14.1671  14.1692  20.1673  20.1673
    20.2598  27.5131  28.3036

          k = 0.0000 0.8660 0.0000 (   370 PWs)   bands (ev):

   -53.5860 -25.2447 -25.2447 -25.2447  14.1130  14.1130  20.3024  20.3024
    20.3024  28.0616  28.0616

          k = 0.0433 0.8227 0.0000 (   370 PWs)   bands (ev):

   -53.5887 -25.2504 -25.2380 -25.2325  14.1661  14.1684  20.1211  20.1678
    20.3109  27.8218  27.9738

          k = 0.0866 0.7794 0.0000 (   370 PWs)   bands (ev):

   -53.5968 -25.2669 -25.2184 -25.1968  14.3154  14.3340  19.6413  19.7957
    20.3357  27.1943  27.7703

          k = 0.1299 0.7361 0.0000 (   360 PWs)   bands (ev):

   -53.6093 -25.2926 -25.1878 -25.1409  14.5270  14.6080  18.9928  19.2783
    20.3745  26.3378  27.5558

          k = 0.1732 0.6928 0.0000 (   358 PWs)   bands (ev):

   -53.6251 -25.3248 -25.1490 -25.0699  14.7328  14.9875  18.2889  18.7579
    20.4237  25.3619  27.3901

          k = 0.2165 0.6495 0.0000 (   362 PWs)   bands (ev):

   -53.6426 -25.3603 -25.1058 -24.9906  14.8269  15.4685  17.6067  18.4042
    20.4786  24.3274  27.2852

          k = 0.2598 0.6062 0.0000 (   358 PWs)   bands (ev):

   -53.6600 -25.3957 -25.0623 -24.9105  14.7255  16.0459  16.9966  18.3371
    20.5339  23.2702  27.2302

          k = 0.3031 0.5629 0.0000 (   352 PWs)   bands (ev):

   -53.6757 -25.4275 -25.0228 -24.8376  14.4726  16.4926  16.7138  18.5163
    20.5841  22.2145  27.2091

          k = 0.3464 0.5196 0.0000 (   354 PWs)   bands (ev):

   -53.6881 -25.4527 -24.9914 -24.7793  14.1951  16.1175  17.4642  18.7900
    20.6242  21.1797  27.2068

          k = 0.3897 0.4763 0.0000 (   350 PWs)   bands (ev):

   -53.6960 -25.4688 -24.9711 -24.7416  13.9941  15.8867  18.2839  19.0155
    20.1866  20.6500  27.2110

          k = 0.4330 0.4330 0.0000 (   360 PWs)   bands (ev):

   -53.6988 -25.4743 -24.9641 -24.7286  13.9218  15.8088  18.9979  19.1013
    19.4141  20.6589  27.2135

          k = 0.3936 0.3936 0.0000 (   350 PWs)   bands (ev):

   -53.7021 -25.4596 -24.9593 -24.7285  13.9190  15.8345  18.7126  19.1316
    19.4037  20.5698  27.5829

          k = 0.3543 0.3543 0.0000 (   358 PWs)   bands (ev):

   -53.7117 -25.4167 -24.9454 -24.7283  13.8883  15.9101  18.1296  19.0947
    19.3743  20.3166  28.5656

          k = 0.3149 0.3149 0.0000 (   360 PWs)   bands (ev):

   -53.7268 -25.3486 -24.9233 -24.7279  13.7614  16.0312  17.5105  19.0179
    19.3316  19.9367  29.9331

          k = 0.2756 0.2756 0.0000 (   354 PWs)   bands (ev):

   -53.7462 -25.2606 -24.8949 -24.7274  13.4489  16.1902  17.0794  18.9260
    19.2825  19.4783  31.5091

          k = 0.2362 0.2362 0.0000 (   356 PWs)   bands (ev):

   -53.7682 -25.1593 -24.8624 -24.7269  12.9335  16.3767  16.9183  18.8423
    18.9894  19.2343  33.1742

          k = 0.1968 0.1968 0.0000 (   356 PWs)   bands (ev):

   -53.7911 -25.0527 -24.8283 -24.7263  12.3097  16.5772  16.9503  18.5120
    18.7928  19.1923  34.8337

          k = 0.1575 0.1575 0.0000 (   354 PWs)   bands (ev):

   -53.8129 -24.9494 -24.7955 -24.7258  11.6914  16.7760  17.0543  18.0800
    18.8016  19.1595  36.3958

          k = 0.1181 0.1181 0.0000 (   350 PWs)   bands (ev):

   -53.8321 -24.8580 -24.7666 -24.7253  11.1556  16.9558  17.1469  17.7193
    18.8743  19.1366  37.7671

          k = 0.0787 0.0787 0.0000 (   358 PWs)   bands (ev):

   -53.8469 -24.7862 -24.7440 -24.7250  10.7479  17.0997  17.1993  17.4488
    18.9826  19.1224  38.8604

          k = 0.0394 0.0394 0.0000 (   365 PWs)   bands (ev):

   -53.8563 -24.7404 -24.7296 -24.7248  10.4942  17.1928  17.2202  17.2816
    19.0763  19.1151  39.5898

          k = 0.0000 0.0000 0.0000 (   369 PWs)   bands (ev):

   -53.8596 -24.7247 -24.7247 -24.7247  10.4082  17.2250  17.2250  17.2250
    19.1129  19.1129  39.8527

          k = 0.0309 0.0309 0.0309 (   369 PWs)   bands (ev):

   -53.8566 -24.7407 -24.7263 -24.7263  10.4879  17.2033  17.2033  17.2862
    19.0971  19.0971  39.6978

          k = 0.0619 0.0619 0.0619 (   357 PWs)   bands (ev):

   -53.8479 -24.7870 -24.7311 -24.7311  10.7231  17.1353  17.1353  17.4689
    19.0587  19.0587  39.2214

          k = 0.0928 0.0928 0.0928 (   354 PWs)   bands (ev):

   -53.8341 -24.8581 -24.7395 -24.7395  11.1033  17.0158  17.0158  17.7699
    19.0191  19.0191  38.4404

          k = 0.1237 0.1237 0.1237 (   354 PWs)   bands (ev):

   -53.8164 -24.9463 -24.7517 -24.7517  11.6109  16.8450  16.8450  18.1842
    18.9999  18.9999  37.4406

          k = 0.1546 0.1546 0.1546 (   351 PWs)   bands (ev):

   -53.7960 -25.0417 -24.7682 -24.7682  12.2221  16.6354  16.6354  18.7046
    19.0120  19.0120  36.3257

          k = 0.1856 0.1856 0.1856 (   351 PWs)   bands (ev):

   -53.7746 -25.1344 -24.7894 -24.7894  12.9069  16.4091  16.4091  19.0540
    19.0540  19.3229  35.1733

          k = 0.2165 0.2165 0.2165 (   357 PWs)   bands (ev):

   -53.7535 -25.2147 -24.8153 -24.8153  13.6283  16.1905  16.1905  19.1172
    19.1172  20.0315  34.0321

          k = 0.2474 0.2474 0.2474 (   354 PWs)   bands (ev):

   -53.7342 -25.2749 -24.8462 -24.8462  14.3408  16.0007  16.0007  19.1911
    19.1911  20.8262  32.9301

          k = 0.2784 0.2784 0.2784 (   354 PWs)   bands (ev):

   -53.7177 -25.3093 -24.8816 -24.8816  14.9904  15.8549  15.8549  19.2661
    19.2661  21.7098  31.8830

          k = 0.3093 0.3093 0.3093 (   342 PWs)   bands (ev):

   -53.7048 -25.3150 -24.9209 -24.9209  15.5191  15.7615  15.7615  19.3347
    19.3347  22.6931  30.8994

          k = 0.3402 0.3402 0.3402 (   345 PWs)   bands (ev):

   -53.6956 -25.2921 -24.9632 -24.9632  15.7228  15.7228  15.8771  19.3917
    19.3917  23.7914  29.9847

          k = 0.3712 0.3712 0.3712 (   345 PWs)   bands (ev):

   -53.6900 -25.2435 -25.0071 -25.0071  15.7355  15.7355  16.0403  19.4340
    19.4340  25.0147  29.1429

          k = 0.4021 0.4021 0.4021 (   345 PWs)   bands (ev):

   -53.6873 -25.1751 -25.0514 -25.0514  15.7912  15.7912  16.0236  19.4601
    19.4601  26.3510  28.3798

          k = 0.4330 0.4330 0.4330 (   336 PWs)   bands (ev):

   -53.6867 -25.0945 -25.0945 -25.0945  15.8766  15.8766  15.8766  19.4689
    19.4689  27.7045  27.7045

     Writing output data file pwscf.save

     init_run     :      0.50s CPU      0.38s WALL (       1 calls)
     electrons    :      5.25s CPU      2.65s WALL (       1 calls)

     Called by init_run:
     wfcinit      :      0.00s CPU      0.00s WALL (       1 calls)
     wfcinit:atom :      0.09s CPU      0.01s WALL (      50 calls)
     wfcinit:wfcr :      0.41s CPU      0.20s WALL (      50 calls)
     potinit      :      0.02s CPU      0.01s WALL (       1 calls)

     Called by electrons:
     c_bands      :      5.23s CPU      2.65s WALL (       1 calls)
     v_of_rho     :      0.00s CPU      0.01s WALL (       1 calls)
     v_h          :      0.00s CPU      0.00s WALL (       1 calls)
     v_xc         :      0.00s CPU      0.01s WALL (       1 calls)
     newd         :      0.02s CPU      0.02s WALL (       1 calls)

     Called by c_bands:
     init_us_2    :      0.08s CPU      0.02s WALL (      50 calls)
     cegterg      :      4.53s CPU      2.34s WALL (      50 calls)

     Called by sum_band:

     Called by *egterg:
     h_psi        :      2.53s CPU      1.25s WALL (     564 calls)
     s_psi        :      0.05s CPU      0.05s WALL (     564 calls)
     g_psi        :      0.00s CPU      0.02s WALL (     464 calls)
     cdiaghg      :      1.83s CPU      0.89s WALL (     514 calls)
     cegterg:over :      0.19s CPU      0.11s WALL (     464 calls)
     cegterg:upda :      0.20s CPU      0.09s WALL (     464 calls)
     cegterg:last :      0.06s CPU      0.05s WALL (     104 calls)

     Called by h_psi:
     h_psi:pot    :      2.45s CPU      1.24s WALL (     564 calls)
     h_psi:calbec :      0.11s CPU      0.06s WALL (     564 calls)
     vloc_psi     :      2.23s CPU      1.11s WALL (     564 calls)
     add_vuspsi   :      0.09s CPU      0.05s WALL (     564 calls)

     General routines
     calbec       :      0.09s CPU      0.05s WALL (     564 calls)
     fft          :      0.00s CPU      0.01s WALL (      13 calls)
     ffts         :      0.00s CPU      0.00s WALL (       1 calls)
     fftw         :      1.80s CPU      0.86s WALL (    8550 calls)
     interpolate  :      0.00s CPU      0.00s WALL (       1 calls)
     davcio       :      0.00s CPU      0.00s WALL (      50 calls)

     Parallel routines
     fft_scatter  :      0.14s CPU      0.15s WALL (    8564 calls)

     PWSCF        :     6.17s CPU         3.46s WALL


   This run was terminated on:  13:30:19  25Feb2021            

=------------------------------------------------------------------------------=
   JOB DONE.
=------------------------------------------------------------------------------=
