element =  O
struct =  bcc
nbands =  -4
path =  GHNGP
kpts =  (8,8,8)
lattice constant a =  2.498
lattice constant b =  2.498
lattice constant c =  2.498
alpha angle =  90.0

  ___ ___ ___ _ _ _  
 |   |   |_  | | | | 
 | | | | | . | | | | 
 |__ |  _|___|_____|  1.3.1b1
 |___|_|             

User:   inukai@DESKTOP-12SE80T
Date:   Thu Feb 11 14:14:39 2021
Arch:   x86_64
Pid:    9037
Python: 3.6.9
gpaw:   /usr/lib/python3/dist-packages/gpaw
_gpaw:  /usr/lib/python3/dist-packages/_gpaw.cpython-36m-x86_64-linux-gnu.so
ase:    /home/inukai/hotcent/ase-3.19.3/ase (version 3.19.3)
numpy:  /home/inukai/.local/lib/python3.6/site-packages/numpy (version 1.19.5)
scipy:  /home/inukai/.local/lib/python3.6/site-packages/scipy (version 1.5.4)
units:  Angstrom and eV
cores:  1

Input parameters:
  kpts: [8 8 8]
  maxiter: 1500
  mixer: {backend: pulay,
          beta: 0.01,
          method: separate,
          nmaxold: 11,
          weight: 100.0}
  mode: {ecut: 400.0,
         name: pw}
  occupations: {name: fermi-dirac,
                width: 0.02}
  spinpol: True
  xc: PBE

System changes: positions, numbers, cell, pbc, initial_charges, initial_magmoms 

Initialize ...

O-setup:
  name: Oxygen
  id: 32ecd46bf208036f09c70b0ec9a88b78
  Z: 8
  valence: 6
  core: 2
  charge: 0.0
  file: /usr/share/gpaw-setups/O.PBE.gz
  cutoffs: 0.67(comp), 1.17(filt), 0.83(core), lmax=2
  valence states:
                energy  radius
    2s(2.00)   -23.961   0.688
    2p(4.00)    -9.029   0.598
    *s           3.251   0.688
    *p          18.182   0.598
    *d           0.000   0.619

  Using partial waves for O as LCAO basis

Reference energy: -2040.852301

Spin-polarized calculation.
Magnetic moment:  0.000000

Occupation numbers:
  Fermi-Dirac: width=0.0200 eV

Convergence criteria:
  Maximum total energy change: 0.0005 eV / electron
  Maximum integral of absolute density change: 0.0001 electrons
  Maximum integral of absolute eigenstate change: 4e-08 eV^2
  Maximum number of iterations: 1500

Symmetries present (total): 48

  ( 1  1  1)  ( 1  1  1)  ( 1  1  1)  ( 1  1  1)  ( 1  1  1)  ( 1  1  1)
  ( 0  0 -1)  ( 0  0 -1)  ( 0 -1  0)  ( 0 -1  0)  (-1  0  0)  (-1  0  0)
  ( 0 -1  0)  (-1  0  0)  ( 0  0 -1)  (-1  0  0)  ( 0  0 -1)  ( 0 -1  0)

  ( 1  0  0)  ( 1  0  0)  ( 1  0  0)  ( 1  0  0)  ( 1  0  0)  ( 1  0  0)
  ( 0  1  0)  ( 0  1  0)  ( 0  0  1)  ( 0  0  1)  (-1 -1 -1)  (-1 -1 -1)
  ( 0  0  1)  (-1 -1 -1)  ( 0  1  0)  (-1 -1 -1)  ( 0  1  0)  ( 0  0  1)

  ( 0  1  0)  ( 0  1  0)  ( 0  1  0)  ( 0  1  0)  ( 0  1  0)  ( 0  1  0)
  ( 1  0  0)  ( 1  0  0)  ( 0  0  1)  ( 0  0  1)  (-1 -1 -1)  (-1 -1 -1)
  ( 0  0  1)  (-1 -1 -1)  ( 1  0  0)  (-1 -1 -1)  ( 1  0  0)  ( 0  0  1)

  ( 0  0  1)  ( 0  0  1)  ( 0  0  1)  ( 0  0  1)  ( 0  0  1)  ( 0  0  1)
  ( 1  0  0)  ( 1  0  0)  ( 0  1  0)  ( 0  1  0)  (-1 -1 -1)  (-1 -1 -1)
  ( 0  1  0)  (-1 -1 -1)  ( 1  0  0)  (-1 -1 -1)  ( 1  0  0)  ( 0  1  0)

  ( 0  0 -1)  ( 0  0 -1)  ( 0  0 -1)  ( 0  0 -1)  ( 0  0 -1)  ( 0  0 -1)
  ( 1  1  1)  ( 1  1  1)  ( 0 -1  0)  ( 0 -1  0)  (-1  0  0)  (-1  0  0)
  ( 0 -1  0)  (-1  0  0)  ( 1  1  1)  (-1  0  0)  ( 1  1  1)  ( 0 -1  0)

  ( 0 -1  0)  ( 0 -1  0)  ( 0 -1  0)  ( 0 -1  0)  ( 0 -1  0)  ( 0 -1  0)
  ( 1  1  1)  ( 1  1  1)  ( 0  0 -1)  ( 0  0 -1)  (-1  0  0)  (-1  0  0)
  ( 0  0 -1)  (-1  0  0)  ( 1  1  1)  (-1  0  0)  ( 1  1  1)  ( 0  0 -1)

  (-1  0  0)  (-1  0  0)  (-1  0  0)  (-1  0  0)  (-1  0  0)  (-1  0  0)
  ( 1  1  1)  ( 1  1  1)  ( 0  0 -1)  ( 0  0 -1)  ( 0 -1  0)  ( 0 -1  0)
  ( 0  0 -1)  ( 0 -1  0)  ( 1  1  1)  ( 0 -1  0)  ( 1  1  1)  ( 0  0 -1)

  (-1 -1 -1)  (-1 -1 -1)  (-1 -1 -1)  (-1 -1 -1)  (-1 -1 -1)  (-1 -1 -1)
  ( 1  0  0)  ( 1  0  0)  ( 0  1  0)  ( 0  1  0)  ( 0  0  1)  ( 0  0  1)
  ( 0  1  0)  ( 0  0  1)  ( 1  0  0)  ( 0  0  1)  ( 1  0  0)  ( 0  1  0)

512 k-points: 8 x 8 x 8 Monkhorst-Pack grid
26 k-points in the irreducible part of the Brillouin zone
       k-points in crystal coordinates                weights
   0:     0.06250000    0.06250000   -0.06250000          6/512
   1:     0.18750000   -0.06250000   -0.06250000          8/512
   2:     0.18750000    0.06250000   -0.06250000         24/512
   3:     0.18750000    0.18750000   -0.18750000          6/512
   4:     0.31250000   -0.06250000   -0.06250000         24/512
   5:     0.31250000    0.06250000   -0.18750000         24/512
   6:     0.31250000    0.06250000   -0.06250000         24/512
   7:     0.31250000    0.18750000   -0.18750000         24/512
   8:     0.31250000    0.31250000   -0.31250000          6/512
   9:     0.31250000    0.31250000    0.18750000         12/512
          ...
  25:     0.43750000    0.43750000    0.43750000          8/512

Wave functions: Plane wave expansion
  Cutoff energy: 400.000 eV
  Number of coefficients (min, max): 132, 148
  Using FFTW library
  Eigensolver: None  MatrixOperator buffer_size: default value or 
                              see value of nblock in input file
Diagonalizer layout: Serial LAPACKOrthonormalizer layout: Serial LAPACK 

Davidson(niter=1, smin=None, normalize=True) 

Densities:
  Coarse grid: 8*8*8 grid
  Fine grid: 16*16*16 grid
  Total Charge: 0.000000 

Density mixing:
  Method: separate
  Backend: pulay
  Linear mixing parameter: 0.01
  Mixing with 11 old densities
  Damping of long wave oscillations: 100 

Hamiltonian:
  XC and Coulomb potentials evaluated on a 16*16*16 grid
  Using the PBE Exchange-Correlation functional
 

Memory estimate:
  Process memory now: 925.93 MiB
  Calculator: 1.48 MiB
    Density: 0.38 MiB
      Arrays: 0.14 MiB
      Localized functions: 0.07 MiB
      Mixer: 0.17 MiB
    Hamiltonian: 0.10 MiB
      Arrays: 0.10 MiB
      XC: 0.00 MiB
      Poisson: 0.00 MiB
      vbar: 0.00 MiB
    Wavefunctions: 1.00 MiB
      Arrays psit_nG: 0.47 MiB
      Eigensolver: 0.02 MiB
      Projections: 0.04 MiB
      Projectors: 0.39 MiB
      Overlap op: 0.01 MiB
      PW-descriptor: 0.06 MiB

Total number of cores used: 1

Number of atoms: 1
Number of atomic orbitals: 4
Number of bands in calculation: 4
Bands to converge: occupied states only
Number of valence electrons: 6

... initialized

Initializing position-dependent things.

Density initialized from atomic densities
Creating initial wave functions:
  4 bands from LCAO basis set

                
                
                
       O        
                
                
                
                

Positions:
   0 O      0.000000    0.000000    0.000000

Unit cell:
           periodic     x           y           z      points  spacing
  1. axis:    yes   -1.249000    1.249000    1.249000     8     0.2208
  2. axis:    yes    1.249000   -1.249000    1.249000     8     0.2208
  3. axis:    yes    1.249000    1.249000   -1.249000     8     0.2208

  Lengths:   2.163331   2.163331   2.163331
  Angles:  109.471221 109.471221 109.471221

Effective grid spacing dv^(1/3) = 0.2478

                     log10-error:    total        iterations:
           time      wfs    density  energy       fermi  poisson  magmom
iter:   1  14:14:42  +0.44   +inf    -0.533162    4               -0.0000
iter:   2  14:14:43  -0.42   +inf    -0.552837    3               +0.0000
iter:   3  14:14:43  -1.64   +inf    -0.555134    3               +0.0000
iter:   4  14:14:43  -2.30  -1.59    -0.554463    3               -0.0000
iter:   5  14:14:44  -0.63  -1.59    -0.528440    31              -0.0000
iter:   6  14:14:44  -1.89  -1.90    -0.531224    4               -0.0000
iter:   7  14:14:45  -1.24  -1.88    -0.547859    27              +0.0000
iter:   8  14:14:46  -1.33  -1.70    -0.532429    29              -0.0000
iter:   9  14:14:46  -1.93  -2.29    -0.531773    5               +0.0000
iter:  10  14:14:47  -2.62  -2.80    -0.531910    4               +0.0000
iter:  11  14:14:47  -3.27  -2.80    -0.531765    4               +0.0000
iter:  12  14:14:48  -2.72  -3.11    -0.532147    4               +0.0000
iter:  13  14:14:48  -2.94  -2.56    -0.531801    4               +0.0016
iter:  14  14:14:49  -3.64  -3.18    -0.531787    4               +0.0002
iter:  15  14:14:49  -4.27  -3.56    -0.531798    3               -0.0000
iter:  16  14:14:50  -4.42  -3.48    -0.531789    4               -0.0002
iter:  17  14:14:50  -5.29  -3.74    -0.531790    3               +0.0005
iter:  18  14:14:51  -6.17  -4.01    -0.531791    2               +0.0001
iter:  19  14:14:51  -7.26  -4.52    -0.531791    2               +0.0000
iter:  20  14:14:52  -6.15  -4.51    -0.531791    3               -0.0000
iter:  21  14:14:52  -6.93  -4.46    -0.531791    2               -0.0000
iter:  22  14:14:53  -7.12  -4.70    -0.531791    2               -0.0000
iter:  23  14:14:53  -6.96  -4.96    -0.531791    2               -0.0001
iter:  24  14:14:54  -6.92  -4.54    -0.531791    2               +0.0000
iter:  25  14:14:54  -6.56  -4.93    -0.531791    3               -0.0001
iter:  26  14:14:55  -7.45  -4.40    -0.531791    2               -0.0001

Converged after 26 iterations.

Dipole moment: (-0.000000, 0.000000, -0.000000) |e|*Ang

Total magnetic moment: -0.000070
Local magnetic moments:
   0 O  -0.000035

Energy contributions relative to reference atoms: (reference = -2040.852301)

Kinetic:         -5.608579
Potential:       +5.376086
External:        +0.000000
XC:              -1.440463
Entropy (-ST):   -0.002944
Local:           +1.142637
--------------------------
Free energy:     -0.533263
Extrapolated:    -0.531791

Spin contamination: 0.000031 electrons
Fermi level: 3.87683

Warning: Showing only first 2 kpts
                      Up                     Down
 Kpt  Band  Eigenvalues  Occupancy  Eigenvalues  Occupancy
  0     1      5.36770    0.00000      5.36762    0.00000
  0     2      5.60816    0.00000      5.60809    0.00000
  0     3      5.63840    0.00000      5.63833    0.00000

  1     1      3.87560    0.00805      3.87554    0.00806
  1     2      5.52872    0.00000      5.52864    0.00000
  1     3      5.56681    0.00000      5.56674    0.00000


Input parameters:
  convergence: {bands: all}
  eigensolver: {name: cg,
                niter: 5}
  fixdensity: True
  kpts: {npoints: 50,
         path: GHNGP}
  nbands: -4
  symmetry: off

Initialize ...

O-setup:
  name: Oxygen
  id: 32ecd46bf208036f09c70b0ec9a88b78
  Z: 8
  valence: 6
  core: 2
  charge: 0.0
  file: /usr/share/gpaw-setups/O.PBE.gz
  cutoffs: 0.67(comp), 1.17(filt), 0.83(core), lmax=2
  valence states:
                energy  radius
    2s(2.00)   -23.961   0.688
    2p(4.00)    -9.029   0.598
    *s           3.251   0.688
    *p          18.182   0.598
    *d           0.000   0.619

  Using partial waves for O as LCAO basis

Reference energy: -2040.852301

Spin-polarized calculation.
Magnetic moment:  0.000000

Occupation numbers:
  Fixed Fermi level
  Fermi-Dirac: width=0.0200 eV

Convergence criteria:
  Maximum total energy change: 0.0005 eV / electron
  Maximum integral of absolute density change: 0.0001 electrons
  Maximum integral of absolute eigenstate change: 4e-08 eV^2
  Maximum number of iterations: 1500

Symmetries present (total): 1

  ( 1  0  0)
  ( 0  1  0)
  ( 0  0  1)

50 k-points
50 k-points in the irreducible part of the Brillouin zone
       k-points in crystal coordinates                weights
   0:     0.00000000    0.00000000    0.00000000          1/50
   1:     0.03571429   -0.03571429    0.03571429          1/50
   2:     0.07142857   -0.07142857    0.07142857          1/50
   3:     0.10714286   -0.10714286    0.10714286          1/50
   4:     0.14285714   -0.14285714    0.14285714          1/50
   5:     0.17857143   -0.17857143    0.17857143          1/50
   6:     0.21428571   -0.21428571    0.21428571          1/50
   7:     0.25000000   -0.25000000    0.25000000          1/50
   8:     0.28571429   -0.28571429    0.28571429          1/50
   9:     0.32142857   -0.32142857    0.32142857          1/50
          ...
  49:     0.25000000    0.25000000    0.25000000          1/50

Wave functions: Plane wave expansion
  Cutoff energy: 400.000 eV
  Number of coefficients (min, max): 116, 150
  Using FFTW library
  Eigensolver: None  MatrixOperator buffer_size: default value or 
                              see value of nblock in input file
Diagonalizer layout: Serial LAPACKOrthonormalizer layout: Serial LAPACK 

CG(niter=5, rtol=3.0e-01) 

No density mixing

Memory estimate:
  Process memory now: 977.73 MiB
  Calculator: 3.12 MiB
    Density: 0.38 MiB
      Arrays: 0.14 MiB
      Localized functions: 0.07 MiB
      Mixer: 0.17 MiB
    Hamiltonian: 0.10 MiB
      Arrays: 0.10 MiB
      XC: 0.00 MiB
      Poisson: 0.00 MiB
      vbar: 0.00 MiB
    Wavefunctions: 2.63 MiB
      Arrays psit_nG: 1.60 MiB
      Eigensolver: 0.03 MiB
      Projections: 0.14 MiB
      Projectors: 0.75 MiB
      Overlap op: 0.02 MiB
      PW-descriptor: 0.10 MiB

Total number of cores used: 1

Number of atoms: 1
Number of atomic orbitals: 4
Number of bands in calculation: 7
Bands to converge: all
Number of valence electrons: 6

... initialized

Initializing position-dependent things.

Creating initial wave functions:
  4 bands from LCAO basis set
  3 bands from random numbers

                
                
                
       O        
                
                
                
                

Positions:
   0 O      0.000000    0.000000    0.000000

Unit cell:
           periodic     x           y           z      points  spacing
  1. axis:    yes   -1.249000    1.249000    1.249000     8     0.2208
  2. axis:    yes    1.249000   -1.249000    1.249000     8     0.2208
  3. axis:    yes    1.249000    1.249000   -1.249000     8     0.2208

  Lengths:   2.163331   2.163331   2.163331
  Angles:  109.471221 109.471221 109.471221

Effective grid spacing dv^(1/3) = 0.2478

                     log10-error:    total        iterations:
           time      wfs    density  energy       fermi  poisson  magmom
iter:   1  14:15:01  +3.91            0.963471    22              +0.0000
iter:   2  14:15:03  +2.89            0.912300    23              +0.0000
iter:   3  14:15:05  +2.03            0.909692    22              -0.0000
iter:   4  14:15:07  +1.20            0.909572    23              -0.0000
iter:   5  14:15:10  +0.32            0.909567    20              -0.0000
iter:   6  14:15:12  -0.46            0.909566    22              -0.0000
iter:   7  14:15:14  -1.06            0.909566    22              -0.0000
iter:   8  14:15:16  -1.85            0.909566    22              -0.0000
iter:   9  14:15:18  -2.01            0.909566    22              -0.0000
iter:  10  14:15:19  -2.49            0.909566    22              -0.0000
iter:  11  14:15:21  -2.67            0.909566    22              -0.0000
iter:  12  14:15:22  -2.81            0.909566    22              -0.0000
iter:  13  14:15:23  -2.87            0.909566    22              -0.0000
iter:  14  14:15:24  -3.53            0.909566    22              -0.0000
iter:  15  14:15:25  -3.02            0.909566    22              -0.0000
iter:  16  14:15:26  -3.26            0.909566    22              -0.0000
iter:  17  14:15:27  -4.09            0.909566    22              -0.0000
iter:  18  14:15:28  -3.53            0.909566    22              -0.0000
iter:  19  14:15:28  -3.89            0.909566    22              -0.0000
iter:  20  14:15:29  -3.50            0.909566    22              -0.0000
iter:  21  14:15:30  -3.87            0.909566    22              -0.0000
iter:  22  14:15:31  -3.86            0.909566    22              -0.0000
iter:  23  14:15:31  -3.40            0.909566    22              -0.0000
iter:  24  14:15:32  -4.30            0.909566    22              -0.0000
iter:  25  14:15:33  -4.24            0.909566    22              -0.0000
iter:  26  14:15:33  -4.11            0.909566    22              -0.0000
iter:  27  14:15:34  -4.44            0.909566    22              -0.0000
iter:  28  14:15:34  -3.40            0.909566    22              -0.0000
iter:  29  14:15:35  -4.32            0.909566    22              -0.0000
iter:  30  14:15:36  -4.39            0.909566    22              -0.0000
iter:  31  14:15:36  -4.95            0.909566    22              -0.0000
iter:  32  14:15:37  -4.54            0.909566    22              -0.0000
iter:  33  14:15:38  -3.91            0.909566    22              -0.0000
iter:  34  14:15:38  -4.36            0.909566    22              -0.0000
iter:  35  14:15:39  -5.23            0.909566    22              -0.0000
iter:  36  14:15:39  -4.34            0.909566    22              -0.0000
iter:  37  14:15:40  -5.16            0.909566    22              -0.0000
iter:  38  14:15:41  -4.64            0.909566    22              -0.0000
iter:  39  14:15:41  -5.17            0.909566    22              -0.0000
iter:  40  14:15:42  -5.19            0.909566    22              -0.0000
iter:  41  14:15:42  -5.10            0.909566    22              -0.0000
iter:  42  14:15:43  -5.22            0.909566    22              -0.0000
iter:  43  14:15:44  -5.45            0.909566    22              -0.0000
iter:  44  14:15:44  -5.08            0.909566    22              -0.0000
iter:  45  14:15:45  -5.22            0.909566    22              -0.0000
iter:  46  14:15:46  -4.63            0.909566    22              -0.0000
iter:  47  14:15:46  -5.18            0.909566    22              -0.0000
iter:  48  14:15:47  -4.53            0.909566    22              -0.0000
iter:  49  14:15:47  -5.31            0.909566    22              -0.0000
iter:  50  14:15:48  -5.35            0.909566    22              -0.0000
iter:  51  14:15:49  -5.34            0.909566    22              -0.0000
iter:  52  14:15:49  -5.34            0.909566    22              -0.0000
iter:  53  14:15:50  -5.47            0.909566    22              -0.0000
iter:  54  14:15:50  -5.68            0.909566    22              -0.0000
iter:  55  14:15:51  -4.95            0.909566    22              -0.0000
iter:  56  14:15:51  -5.11            0.909566    22              -0.0000
iter:  57  14:15:52  -5.58            0.909566    22              -0.0000
iter:  58  14:15:53  -5.68            0.909566    22              -0.0000
iter:  59  14:15:53  -5.99            0.909566    22              -0.0000
iter:  60  14:15:54  -5.65            0.909566    22              -0.0000
iter:  61  14:15:54  -5.90            0.909566    22              -0.0000
iter:  62  14:15:55  -5.71            0.909566    22              -0.0000
iter:  63  14:15:56  -6.00            0.909566    22              -0.0000
iter:  64  14:15:56  -5.87            0.909566    22              -0.0000
iter:  65  14:15:57  -5.99            0.909566    22              -0.0000
iter:  66  14:15:57  -5.87            0.909566    22              -0.0000
iter:  67  14:15:58  -6.05            0.909566    22              -0.0000
iter:  68  14:15:58  -5.84            0.909566    22              -0.0000
iter:  69  14:15:59  -6.02            0.909566    22              -0.0000
iter:  70  14:16:00  -5.96            0.909566    22              -0.0000
iter:  71  14:16:00  -5.99            0.909566    22              -0.0000
iter:  72  14:16:01  -5.98            0.909566    22              -0.0000
iter:  73  14:16:01  -6.13            0.909566    22              -0.0000
iter:  74  14:16:02  -6.00            0.909566    22              -0.0000
iter:  75  14:16:02  -6.07            0.909566    22              -0.0000
iter:  76  14:16:03  -5.99            0.909566    22              -0.0000
iter:  77  14:16:04  -6.19            0.909566    22              -0.0000
iter:  78  14:16:04  -6.05            0.909566    22              -0.0000
iter:  79  14:16:05  -6.22            0.909566    22              -0.0000
iter:  80  14:16:05  -6.10            0.909566    22              -0.0000
iter:  81  14:16:06  -6.03            0.909566    22              -0.0000
iter:  82  14:16:06  -6.02            0.909566    22              -0.0000
iter:  83  14:16:07  -6.22            0.909566    22              -0.0000
iter:  84  14:16:08  -6.07            0.909566    22              -0.0000
iter:  85  14:16:08  -6.16            0.909566    22              -0.0000
iter:  86  14:16:09  -6.19            0.909566    22              -0.0000
iter:  87  14:16:09  -6.24            0.909566    22              -0.0000
iter:  88  14:16:10  -6.18            0.909566    22              -0.0000
iter:  89  14:16:10  -6.23            0.909566    22              -0.0000
iter:  90  14:16:11  -6.09            0.909566    22              -0.0000
iter:  91  14:16:11  -6.28            0.909566    22              -0.0000
iter:  92  14:16:12  -6.17            0.909566    22              -0.0000
iter:  93  14:16:13  -6.30            0.909566    22              -0.0000
iter:  94  14:16:13  -6.29            0.909566    22              -0.0000
iter:  95  14:16:14  -6.30            0.909566    22              -0.0000
iter:  96  14:16:14  -6.29            0.909566    22              -0.0000
iter:  97  14:16:15  -6.34            0.909566    22              -0.0000
iter:  98  14:16:15  -6.24            0.909566    22              -0.0000
iter:  99  14:16:16  -6.40            0.909566    22              -0.0000
iter: 100  14:16:17  -6.29            0.909566    22              -0.0000
iter: 101  14:16:17  -6.46            0.909566    22              -0.0000
iter: 102  14:16:18  -6.35            0.909566    22              -0.0000
iter: 103  14:16:18  -6.45            0.909566    22              -0.0000
iter: 104  14:16:19  -6.39            0.909566    22              -0.0000
iter: 105  14:16:19  -6.33            0.909566    22              -0.0000
iter: 106  14:16:20  -6.46            0.909566    22              -0.0000
iter: 107  14:16:20  -6.46            0.909566    22              -0.0000
iter: 108  14:16:21  -6.47            0.909566    22              -0.0000
iter: 109  14:16:22  -6.48            0.909566    22              -0.0000
iter: 110  14:16:22  -6.47            0.909566    22              -0.0000
iter: 111  14:16:23  -6.52            0.909566    22              -0.0000
iter: 112  14:16:23  -6.51            0.909566    22              -0.0000
iter: 113  14:16:24  -6.53            0.909566    22              -0.0000
iter: 114  14:16:24  -6.51            0.909566    22              -0.0000
iter: 115  14:16:25  -6.58            0.909566    22              -0.0000
iter: 116  14:16:26  -6.47            0.909566    22              -0.0000
iter: 117  14:16:26  -6.62            0.909566    22              -0.0000
iter: 118  14:16:27  -6.48            0.909566    22              -0.0000
iter: 119  14:16:27  -6.61            0.909566    22              -0.0000
iter: 120  14:16:28  -6.60            0.909566    22              -0.0000
iter: 121  14:16:28  -6.62            0.909566    22              -0.0000
iter: 122  14:16:29  -6.62            0.909566    22              -0.0000
iter: 123  14:16:29  -6.59            0.909566    22              -0.0000
iter: 124  14:16:30  -6.66            0.909566    22              -0.0000
iter: 125  14:16:31  -6.60            0.909566    22              -0.0000
iter: 126  14:16:31  -6.66            0.909566    22              -0.0000
iter: 127  14:16:32  -6.62            0.909566    22              -0.0000
iter: 128  14:16:32  -6.71            0.909566    22              -0.0000
iter: 129  14:16:33  -6.64            0.909566    22              -0.0000
iter: 130  14:16:33  -6.70            0.909566    22              -0.0000
iter: 131  14:16:34  -6.73            0.909566    22              -0.0000
iter: 132  14:16:35  -6.60            0.909566    22              -0.0000
iter: 133  14:16:35  -6.71            0.909566    22              -0.0000
iter: 134  14:16:36  -6.75            0.909566    22              -0.0000
iter: 135  14:16:36  -6.68            0.909566    22              -0.0000
iter: 136  14:16:37  -6.76            0.909566    22              -0.0000
iter: 137  14:16:37  -6.79            0.909566    22              -0.0000
iter: 138  14:16:38  -6.79            0.909566    22              -0.0000
iter: 139  14:16:38  -6.78            0.909566    22              -0.0000
iter: 140  14:16:39  -6.87            0.909566    22              -0.0000
iter: 141  14:16:40  -6.70            0.909566    22              -0.0000
iter: 142  14:16:40  -6.87            0.909566    22              -0.0000
iter: 143  14:16:41  -6.81            0.909566    22              -0.0000
iter: 144  14:16:41  -6.84            0.909566    22              -0.0000
iter: 145  14:16:42  -6.83            0.909566    22              -0.0000
iter: 146  14:16:42  -6.94            0.909566    22              -0.0000
iter: 147  14:16:43  -6.82            0.909566    22              -0.0000
iter: 148  14:16:43  -6.93            0.909566    22              -0.0000
iter: 149  14:16:44  -6.89            0.909566    22              -0.0000
iter: 150  14:16:45  -6.92            0.909566    22              -0.0000
iter: 151  14:16:45  -6.87            0.909566    22              -0.0000
iter: 152  14:16:46  -7.00            0.909566    22              -0.0000
iter: 153  14:16:46  -6.87            0.909566    22              -0.0000
iter: 154  14:16:47  -6.98            0.909566    22              -0.0000
iter: 155  14:16:47  -6.90            0.909566    22              -0.0000
iter: 156  14:16:48  -7.04            0.909566    22              -0.0000
iter: 157  14:16:48  -6.91            0.909566    22              -0.0000
iter: 158  14:16:49  -7.02            0.909566    22              -0.0000
iter: 159  14:16:50  -6.92            0.909566    22              -0.0000
iter: 160  14:16:50  -7.08            0.909566    22              -0.0000
iter: 161  14:16:51  -6.94            0.909566    22              -0.0000
iter: 162  14:16:51  -6.97            0.909566    22              -0.0000
iter: 163  14:16:52  -6.98            0.909566    22              -0.0000
iter: 164  14:16:52  -7.12            0.909566    22              -0.0000
iter: 165  14:16:53  -7.00            0.909566    22              -0.0000
iter: 166  14:16:53  -7.12            0.909566    22              -0.0000
iter: 167  14:16:54  -7.03            0.909566    22              -0.0000
iter: 168  14:16:54  -7.16            0.909566    22              -0.0000
iter: 169  14:16:55  -7.04            0.909566    22              -0.0000
iter: 170  14:16:56  -7.18            0.909566    22              -0.0000
iter: 171  14:16:56  -7.06            0.909566    22              -0.0000
iter: 172  14:16:57  -7.20            0.909566    22              -0.0000
iter: 173  14:16:57  -7.07            0.909566    22              -0.0000
iter: 174  14:16:58  -7.22            0.909566    22              -0.0000
iter: 175  14:16:58  -7.09            0.909566    22              -0.0000
iter: 176  14:16:59  -7.24            0.909566    22              -0.0000
iter: 177  14:16:59  -7.10            0.909566    22              -0.0000
iter: 178  14:17:00  -7.25            0.909566    22              -0.0000
iter: 179  14:17:00  -7.12            0.909566    22              -0.0000
iter: 180  14:17:01  -7.27            0.909566    22              -0.0000
iter: 181  14:17:02  -7.13            0.909566    22              -0.0000
iter: 182  14:17:02  -7.29            0.909566    22              -0.0000
iter: 183  14:17:03  -7.14            0.909566    22              -0.0000
iter: 184  14:17:03  -7.31            0.909566    22              -0.0000
iter: 185  14:17:04  -7.16            0.909566    22              -0.0000
iter: 186  14:17:04  -7.32            0.909566    22              -0.0000
iter: 187  14:17:05  -7.17            0.909566    22              -0.0000
iter: 188  14:17:05  -7.34            0.909566    22              -0.0000
iter: 189  14:17:06  -7.19            0.909566    22              -0.0000
iter: 190  14:17:06  -7.35            0.909566    22              -0.0000
iter: 191  14:17:07  -7.20            0.909566    22              -0.0000
iter: 192  14:17:08  -7.37            0.909566    22              -0.0000
iter: 193  14:17:08  -7.21            0.909566    22              -0.0000
iter: 194  14:17:09  -7.39            0.909566    22              -0.0000
iter: 195  14:17:09  -7.23            0.909566    22              -0.0000
iter: 196  14:17:10  -7.40            0.909566    22              -0.0000

Converged after 196 iterations.

Dipole moment: (-0.000000, 0.000000, -0.000000) |e|*Ang

Total magnetic moment: -0.000000
Local magnetic moments:
   0 O  -0.000035

Energy contributions relative to reference atoms: (reference = -2040.852301)

Kinetic:         -4.168297
Potential:       +5.375761
External:        +0.000000
XC:              -1.440670
Entropy (-ST):   -0.000014
Local:           +1.142780
--------------------------
Free energy:     +0.909559
Extrapolated:    +0.909566

Spin contamination: 0.000031 electrons
Fixed Fermi level: 3.87683

Warning: Showing only first 2 kpts
                      Up                     Down
 Kpt  Band  Eigenvalues  Occupancy  Eigenvalues  Occupancy
  0     1      5.78180    0.00000      5.78172    0.00000
  0     2      5.78180    0.00000      5.78172    0.00000
  0     3      5.82642    0.00000      5.82634    0.00000
  0     4     22.14643    0.00000     22.14635    0.00000

  1     1      5.63498    0.00000      5.63490    0.00000
  1     2      5.72484    0.00000      5.72476    0.00000
  1     3      5.75785    0.00000      5.75777    0.00000
  1     4     22.31023    0.00000     22.31015    0.00000


Timing:                              incl.     excl.
-----------------------------------------------------------
Hamiltonian:                         0.218     0.001   0.0% |
 Atomic:                             0.178     0.002   0.0% |
  XC Correction:                     0.176     0.176   0.1% |
 Calculate atomic Hamiltonians:      0.002     0.002   0.0% |
 Communicate:                        0.000     0.000   0.0% |
 Initialize Hamiltonian:             0.000     0.000   0.0% |
 Poisson:                            0.000     0.000   0.0% |
 XC 3D grid:                         0.036     0.036   0.0% |
LCAO initialization:                 4.229     0.047   0.0% |
 LCAO eigensolver:                   3.102     0.016   0.0% |
  Calculate projections:             0.004     0.004   0.0% |
  DenseAtomicCorrection:             0.031     0.031   0.0% |
  Distribute overlap matrix:         0.006     0.006   0.0% |
  Orbital Layouts:                   0.027     0.027   0.0% |
  Potential matrix:                  0.251     0.251   0.2% |
  Sum over cells:                    2.768     2.768   1.8% ||
 LCAO to grid:                       0.292     0.292   0.2% |
 Set positions (LCAO WFS):           0.787     0.000   0.0% |
  Basic WFS set positions:           0.002     0.002   0.0% |
  Basis functions set positions:     0.000     0.000   0.0% |
  TCI: Calculate S, T, P:            0.785     0.785   0.5% |
PWDescriptor:                        0.012     0.012   0.0% |
Redistribute:                        0.000     0.000   0.0% |
SCF-cycle:                         144.625    55.128  36.4% |--------------|
 CG:                                40.915    36.253  24.0% |---------|
  CG: orthonormalize:                4.662     2.738   1.8% ||
   CG: overlap:                      1.118     1.118   0.7% |
   CG: overlap2:                     0.805     0.805   0.5% |
 Davidson:                           4.886     3.054   2.0% ||
  calc. matrices:                    1.148     1.148   0.8% |
  diagonalize:                       0.415     0.415   0.3% |
  rotate_psi:                        0.270     0.270   0.2% |
 Density:                            0.793     0.001   0.0% |
  Atomic density matrices:           0.114     0.114   0.1% |
  Mix:                               0.076     0.076   0.1% |
  Multipole moments:                 0.005     0.005   0.0% |
  Pseudo density:                    0.596     0.424   0.3% |
   Symmetrize density:               0.172     0.172   0.1% |
 Hamiltonian:                        4.099     0.013   0.0% |
  Atomic:                            3.700     0.023   0.0% |
   XC Correction:                    3.677     3.677   2.4% ||
  Calculate atomic Hamiltonians:     0.024     0.024   0.0% |
  Communicate:                       0.000     0.000   0.0% |
  Poisson:                           0.003     0.003   0.0% |
  XC 3D grid:                        0.359     0.359   0.2% |
 Orthonormalize:                     0.113     0.010   0.0% |
  Band Layouts:                      0.007     0.003   0.0% |
   Inverse Cholesky:                 0.005     0.005   0.0% |
  calc_s_matrix:                     0.019     0.019   0.0% |
  projections:                       0.062     0.062   0.0% |
  rotate_psi:                        0.015     0.015   0.0% |
 Residuals:                         11.674    11.674   7.7% |--|
 Subspace diag:                     27.017     2.285   1.5% ||
  Band Layouts:                      4.295     0.697   0.5% |
   Diagonalize:                      3.100     3.100   2.0% ||
   Distribute results:               0.498     0.498   0.3% |
  calc_h_matrix:                    16.700    16.700  11.0% |---|
  rotate_psi:                        3.738     3.738   2.5% ||
Set symmetry:                        0.107     0.107   0.1% |
Other:                               2.098     2.098   1.4% ||
-----------------------------------------------------------
Total:                                       151.289 100.0%

Date: Thu Feb 11 14:17:11 2021
element =  O
struct =  bcc
kpts =  (8,8,8)
element =  O
configuration =  [He] 2s2 2p4
valence =  ['2s', '2p']
occupations =  {'2s': 2, '2p': 4}
nls =  2p
rNum =  600
lmax =  p
*******************************************
Starting confinement parameter optimization
Adjustable parameters and initial values:
  O_2p.r0 : 2.494438
  O_2s.r0 : 2.494438
  O_n.r0 : 3.741658
*******************************************

OPT_VAL: 2.4944384861047455   2.4944384861047455   3.7416577291571183
VCONF:
  O_2p : PowerConfinement(r0=2.494438, s=2.000000)
  O_2s : PowerConfinement(r0=2.494438, s=2.000000)
  O_n : PowerConfinement(r0=3.741658, s=2.000000)
RESIDUAL: 0.0

OPT_VAL: 2.6944384861047457   2.4944384861047455   3.7416577291571183
VCONF:
  O_2p : PowerConfinement(r0=2.694438, s=2.000000)
  O_2s : PowerConfinement(r0=2.494438, s=2.000000)
  O_n : PowerConfinement(r0=3.741658, s=2.000000)
RESIDUAL: 0.0

OPT_VAL: 2.4944384861047455   2.6944384861047457   3.7416577291571183
VCONF:
  O_2p : PowerConfinement(r0=2.494438, s=2.000000)
  O_2s : PowerConfinement(r0=2.694438, s=2.000000)
  O_n : PowerConfinement(r0=3.741658, s=2.000000)
RESIDUAL: 0.0

OPT_VAL: 2.4944384861047455   2.4944384861047455   3.9416577291571184
VCONF:
  O_2p : PowerConfinement(r0=2.494438, s=2.000000)
  O_2s : PowerConfinement(r0=2.494438, s=2.000000)
  O_n : PowerConfinement(r0=3.941658, s=2.000000)
RESIDUAL: 0.0

OPT_VAL: 2.5194384861047454   2.4944384861047455   3.7416577291571183
VCONF:
  O_2p : PowerConfinement(r0=2.519438, s=2.000000)
  O_2s : PowerConfinement(r0=2.494438, s=2.000000)
  O_n : PowerConfinement(r0=3.741658, s=2.000000)
RESIDUAL: 0.0

OPT_VAL: 2.4944384861047455   2.5194384861047454   3.7416577291571183
VCONF:
  O_2p : PowerConfinement(r0=2.494438, s=2.000000)
  O_2s : PowerConfinement(r0=2.519438, s=2.000000)
  O_n : PowerConfinement(r0=3.741658, s=2.000000)
RESIDUAL: 0.0

OPT_VAL: 2.4944384861047455   2.4944384861047455   3.766657729157118
VCONF:
  O_2p : PowerConfinement(r0=2.494438, s=2.000000)
  O_2s : PowerConfinement(r0=2.494438, s=2.000000)
  O_n : PowerConfinement(r0=3.766658, s=2.000000)
RESIDUAL: 0.0

OPT_VAL: 2.4994384861047454   2.4944384861047455   3.7416577291571183
VCONF:
  O_2p : PowerConfinement(r0=2.499438, s=2.000000)
  O_2s : PowerConfinement(r0=2.494438, s=2.000000)
  O_n : PowerConfinement(r0=3.741658, s=2.000000)
RESIDUAL: 0.0

OPT_VAL: 2.4944384861047455   2.4994384861047454   3.7416577291571183
VCONF:
  O_2p : PowerConfinement(r0=2.494438, s=2.000000)
  O_2s : PowerConfinement(r0=2.499438, s=2.000000)
  O_n : PowerConfinement(r0=3.741658, s=2.000000)
RESIDUAL: 0.0

OPT_VAL: 2.4944384861047455   2.4944384861047455   3.746657729157118
VCONF:
  O_2p : PowerConfinement(r0=2.494438, s=2.000000)
  O_2s : PowerConfinement(r0=2.494438, s=2.000000)
  O_n : PowerConfinement(r0=3.746658, s=2.000000)
RESIDUAL: 0.0

*******************************************
Optimization finished after 10 iterations
Adjustable parameters and final values:
  O_2p.r0 : 2.494438
  O_2s.r0 : 2.494438
  O_n.r0 : 3.741658
*******************************************

VCONF:
  O_2p : PowerConfinement(r0=2.494438, s=2.000000)
  O_2s : PowerConfinement(r0=2.494438, s=2.000000)
  O_n : PowerConfinement(r0=3.741658, s=2.000000)
