element =  Fe
struct =  bcc
nbands =  -4
path =  GHNGP
kpts =  (8,8,8)

  ___ ___ ___ _ _ _  
 |   |   |_  | | | | 
 | | | | | . | | | | 
 |__ |  _|___|_____|  1.3.1b1
 |___|_|             

User:   inukai@DESKTOP-12SE80T
Date:   Tue Feb  2 21:09:32 2021
Arch:   x86_64
Pid:    1759
Python: 3.6.9
gpaw:   /usr/lib/python3/dist-packages/gpaw
_gpaw:  /usr/lib/python3/dist-packages/_gpaw.cpython-36m-x86_64-linux-gnu.so
ase:    /home/inukai/hotcent/ase-3.19.3/ase (version 3.19.3)
numpy:  /home/inukai/.local/lib/python3.6/site-packages/numpy (version 1.19.5)
scipy:  /home/inukai/.local/lib/python3.6/site-packages/scipy (version 1.5.4)
units:  Angstrom and eV
cores:  1

Input parameters:
  kpts: [8 8 8]
  maxiter: 200
  mixer: {backend: pulay,
          beta: 0.05,
          method: separate,
          nmaxold: 8,
          weight: 100}
  mode: {ecut: 400.0,
         name: pw}
  occupations: {name: fermi-dirac,
                width: 0.02}
  spinpol: False
  xc: PBE

System changes: positions, numbers, cell, pbc, initial_charges, initial_magmoms 

Initialize ...

Fe-setup:
  name: Iron
  id: 37abbd8d6c3c35915a9b583b742da910
  Z: 26
  valence: 8
  core: 18
  charge: 0.0
  file: /usr/share/gpaw-setups/Fe.PBE.gz
  cutoffs: 1.06(comp), 2.06(filt), 2.67(core), lmax=2
  valence states:
                energy  radius
    4s(2.00)    -5.291   1.164
    4p(0.00)    -1.326   1.058
    3d(6.00)    -7.505   1.058
    *s          21.920   1.164
    *p          25.885   1.058
    *d          19.706   1.058

  Using partial waves for Fe as LCAO basis

Reference energy: -34619.454600

Spin-paired calculation

Occupation numbers:
  Fermi-Dirac: width=0.0200 eV

Convergence criteria:
  Maximum total energy change: 0.0005 eV / electron
  Maximum integral of absolute density change: 0.0001 electrons
  Maximum integral of absolute eigenstate change: 4e-08 eV^2
  Maximum number of iterations: 200

Symmetries present (total): 48

  ( 1  1  1)  ( 1  1  1)  ( 1  1  1)  ( 1  1  1)  ( 1  1  1)  ( 1  1  1)
  ( 0  0 -1)  ( 0  0 -1)  ( 0 -1  0)  ( 0 -1  0)  (-1  0  0)  (-1  0  0)
  ( 0 -1  0)  (-1  0  0)  ( 0  0 -1)  (-1  0  0)  ( 0  0 -1)  ( 0 -1  0)

  ( 1  0  0)  ( 1  0  0)  ( 1  0  0)  ( 1  0  0)  ( 1  0  0)  ( 1  0  0)
  ( 0  1  0)  ( 0  1  0)  ( 0  0  1)  ( 0  0  1)  (-1 -1 -1)  (-1 -1 -1)
  ( 0  0  1)  (-1 -1 -1)  ( 0  1  0)  (-1 -1 -1)  ( 0  1  0)  ( 0  0  1)

  ( 0  1  0)  ( 0  1  0)  ( 0  1  0)  ( 0  1  0)  ( 0  1  0)  ( 0  1  0)
  ( 1  0  0)  ( 1  0  0)  ( 0  0  1)  ( 0  0  1)  (-1 -1 -1)  (-1 -1 -1)
  ( 0  0  1)  (-1 -1 -1)  ( 1  0  0)  (-1 -1 -1)  ( 1  0  0)  ( 0  0  1)

  ( 0  0  1)  ( 0  0  1)  ( 0  0  1)  ( 0  0  1)  ( 0  0  1)  ( 0  0  1)
  ( 1  0  0)  ( 1  0  0)  ( 0  1  0)  ( 0  1  0)  (-1 -1 -1)  (-1 -1 -1)
  ( 0  1  0)  (-1 -1 -1)  ( 1  0  0)  (-1 -1 -1)  ( 1  0  0)  ( 0  1  0)

  ( 0  0 -1)  ( 0  0 -1)  ( 0  0 -1)  ( 0  0 -1)  ( 0  0 -1)  ( 0  0 -1)
  ( 1  1  1)  ( 1  1  1)  ( 0 -1  0)  ( 0 -1  0)  (-1  0  0)  (-1  0  0)
  ( 0 -1  0)  (-1  0  0)  ( 1  1  1)  (-1  0  0)  ( 1  1  1)  ( 0 -1  0)

  ( 0 -1  0)  ( 0 -1  0)  ( 0 -1  0)  ( 0 -1  0)  ( 0 -1  0)  ( 0 -1  0)
  ( 1  1  1)  ( 1  1  1)  ( 0  0 -1)  ( 0  0 -1)  (-1  0  0)  (-1  0  0)
  ( 0  0 -1)  (-1  0  0)  ( 1  1  1)  (-1  0  0)  ( 1  1  1)  ( 0  0 -1)

  (-1  0  0)  (-1  0  0)  (-1  0  0)  (-1  0  0)  (-1  0  0)  (-1  0  0)
  ( 1  1  1)  ( 1  1  1)  ( 0  0 -1)  ( 0  0 -1)  ( 0 -1  0)  ( 0 -1  0)
  ( 0  0 -1)  ( 0 -1  0)  ( 1  1  1)  ( 0 -1  0)  ( 1  1  1)  ( 0  0 -1)

  (-1 -1 -1)  (-1 -1 -1)  (-1 -1 -1)  (-1 -1 -1)  (-1 -1 -1)  (-1 -1 -1)
  ( 1  0  0)  ( 1  0  0)  ( 0  1  0)  ( 0  1  0)  ( 0  0  1)  ( 0  0  1)
  ( 0  1  0)  ( 0  0  1)  ( 1  0  0)  ( 0  0  1)  ( 1  0  0)  ( 0  1  0)

512 k-points: 8 x 8 x 8 Monkhorst-Pack grid
26 k-points in the irreducible part of the Brillouin zone
       k-points in crystal coordinates                weights
   0:     0.06250000    0.06250000   -0.06250000          6/512
   1:     0.18750000   -0.06250000   -0.06250000          8/512
   2:     0.18750000    0.06250000   -0.06250000         24/512
   3:     0.18750000    0.18750000   -0.18750000          6/512
   4:     0.31250000   -0.06250000   -0.06250000         24/512
   5:     0.31250000    0.06250000   -0.18750000         24/512
   6:     0.31250000    0.06250000   -0.06250000         24/512
   7:     0.31250000    0.18750000   -0.18750000         24/512
   8:     0.31250000    0.31250000   -0.31250000          6/512
   9:     0.31250000    0.31250000    0.18750000         12/512
          ...
  25:     0.43750000    0.43750000    0.43750000          8/512

Wave functions: Plane wave expansion
  Cutoff energy: 400.000 eV
  Number of coefficients (min, max): 210, 228
  Using FFTW library
  Eigensolver: None  MatrixOperator buffer_size: default value or 
                              see value of nblock in input file
Diagonalizer layout: Serial LAPACKOrthonormalizer layout: Serial LAPACK 

Davidson(niter=1, smin=None, normalize=True) 

Densities:
  Coarse grid: 9*9*9 grid
  Fine grid: 18*18*18 grid
  Total Charge: 0.000000 

Density mixing:
  Method: separate
  Backend: pulay
  Linear mixing parameter: 0.05
  Mixing with 8 old densities
  Damping of long wave oscillations: 100 

Hamiltonian:
  XC and Coulomb potentials evaluated on a 18*18*18 grid
  Using the PBE Exchange-Correlation functional
 

Memory estimate:
  Process memory now: 922.98 MiB
  Calculator: 2.14 MiB
    Density: 0.34 MiB
      Arrays: 0.14 MiB
      Localized functions: 0.11 MiB
      Mixer: 0.09 MiB
    Hamiltonian: 0.10 MiB
      Arrays: 0.09 MiB
      XC: 0.00 MiB
      Poisson: 0.00 MiB
      vbar: 0.00 MiB
    Wavefunctions: 1.70 MiB
      Arrays psit_nG: 0.81 MiB
      Eigensolver: 0.06 MiB
      Projections: 0.06 MiB
      Projectors: 0.64 MiB
      Overlap op: 0.03 MiB
      PW-descriptor: 0.09 MiB

Total number of cores used: 1

Number of atoms: 1
Number of atomic orbitals: 9
Number of bands in calculation: 9
Bands to converge: occupied states only
Number of valence electrons: 8

... initialized

Initializing position-dependent things.

Density initialized from atomic densities
Creating initial wave functions:
  9 bands from LCAO basis set

                
                
                
       Fe       
                
                
                
                

Positions:
   0 Fe     0.000000    0.000000    0.000000

Unit cell:
           periodic     x           y           z      points  spacing
  1. axis:    yes   -1.435000    1.435000    1.435000     9     0.2255
  2. axis:    yes    1.435000   -1.435000    1.435000     9     0.2255
  3. axis:    yes    1.435000    1.435000   -1.435000     9     0.2255

  Lengths:   2.485493   2.485493   2.485493
  Angles:  109.471221 109.471221 109.471221

Effective grid spacing dv^(1/3) = 0.2531

                     log10-error:    total        iterations:
           time      wfs    density  energy       fermi  poisson
iter:   1  21:09:34  +2.31   +inf    -8.284288    4             
iter:   2  21:09:34  +0.36   +inf    -8.360185    3             
iter:   3  21:09:35  -0.86   +inf    -8.370746    3             
iter:   4  21:09:35  -0.88  -1.36    -8.333410    4             
iter:   5  21:09:36  -0.30  -1.43    -8.269419    28            
iter:   6  21:09:36  -1.60  -1.82    -8.293686    4             
iter:   7  21:09:37  -1.15  -1.92    -8.299103    5             
iter:   8  21:09:37  -2.31  -3.08    -8.299550    3             
iter:   9  21:09:38  -2.10  -3.04    -8.301533    4             
iter:  10  21:09:38  -1.87  -2.36    -8.299726    5             
iter:  11  21:09:39  -3.70  -3.20    -8.299761    3             
iter:  12  21:09:39  -3.78  -3.52    -8.299775    3             
iter:  13  21:09:40  -4.54  -3.40    -8.299785    3             
iter:  14  21:09:40  -4.54  -3.28    -8.299786    2             
iter:  15  21:09:41  -5.17  -3.31    -8.299785    3             
iter:  16  21:09:41  -4.10  -3.46    -8.299809    3             
iter:  17  21:09:41  -3.40  -3.32    -8.299786    3             
iter:  18  21:09:42  -4.38  -3.33    -8.299781    3             
iter:  19  21:09:42  -5.89  -3.99    -8.299781    2             
iter:  20  21:09:43  -5.87  -3.83    -8.299781    2             
iter:  21  21:09:43  -6.10  -4.06    -8.299781    2             
iter:  22  21:09:44  -5.56  -4.51    -8.299781    3             
iter:  23  21:09:44  -5.42  -4.22    -8.299781    3             
iter:  24  21:09:45  -6.57  -4.74    -8.299781    2             
iter:  25  21:09:45  -7.79  -5.22    -8.299781    2             

Converged after 25 iterations.

Dipole moment: (0.000000, 0.000000, -0.000000) |e|*Ang

Energy contributions relative to reference atoms: (reference = -34619.454600)

Kinetic:         -3.245709
Potential:       +2.396785
External:        +0.000000
XC:              -7.745522
Entropy (-ST):   -0.006013
Local:           +0.297671
--------------------------
Free energy:     -8.302787
Extrapolated:    -8.299781

Fermi level: 9.61934

Warning: Showing only first 2 kpts
 Kpt  Band  Eigenvalues  Occupancy
  0     2      8.10846    0.02344
  0     3      8.20014    0.02344
  0     4      9.43411    0.02344
  0     5      9.64383    0.00532

  1     2      7.90221    0.03125
  1     3      8.69828    0.03125
  1     4      9.50976    0.03112
  1     5      9.50994    0.03112


Input parameters:
  convergence: {bands: all}
  eigensolver: {name: cg,
                niter: 5}
  fixdensity: True
  kpts: {npoints: 50,
         path: GHNGP}
  nbands: -4
  symmetry: off

Initialize ...

Fe-setup:
  name: Iron
  id: 37abbd8d6c3c35915a9b583b742da910
  Z: 26
  valence: 8
  core: 18
  charge: 0.0
  file: /usr/share/gpaw-setups/Fe.PBE.gz
  cutoffs: 1.06(comp), 2.06(filt), 2.67(core), lmax=2
  valence states:
                energy  radius
    4s(2.00)    -5.291   1.164
    4p(0.00)    -1.326   1.058
    3d(6.00)    -7.505   1.058
    *s          21.920   1.164
    *p          25.885   1.058
    *d          19.706   1.058

  Using partial waves for Fe as LCAO basis

Reference energy: -34619.454600

Spin-paired calculation

Occupation numbers:
  Fixed Fermi level
  Fermi-Dirac: width=0.0200 eV

Convergence criteria:
  Maximum total energy change: 0.0005 eV / electron
  Maximum integral of absolute density change: 0.0001 electrons
  Maximum integral of absolute eigenstate change: 4e-08 eV^2
  Maximum number of iterations: 200

Symmetries present (total): 1

  ( 1  0  0)
  ( 0  1  0)
  ( 0  0  1)

50 k-points
50 k-points in the irreducible part of the Brillouin zone
       k-points in crystal coordinates                weights
   0:     0.00000000    0.00000000    0.00000000          1/50
   1:     0.03571429   -0.03571429    0.03571429          1/50
   2:     0.07142857   -0.07142857    0.07142857          1/50
   3:     0.10714286   -0.10714286    0.10714286          1/50
   4:     0.14285714   -0.14285714    0.14285714          1/50
   5:     0.17857143   -0.17857143    0.17857143          1/50
   6:     0.21428571   -0.21428571    0.21428571          1/50
   7:     0.25000000   -0.25000000    0.25000000          1/50
   8:     0.28571429   -0.28571429    0.28571429          1/50
   9:     0.32142857   -0.32142857    0.32142857          1/50
          ...
  49:     0.25000000    0.25000000    0.25000000          1/50

Wave functions: Plane wave expansion
  Cutoff energy: 400.000 eV
  Number of coefficients (min, max): 201, 236
  Using FFTW library
  Eigensolver: None  MatrixOperator buffer_size: default value or 
                              see value of nblock in input file
Diagonalizer layout: Serial LAPACKOrthonormalizer layout: Serial LAPACK 

CG(niter=5, rtol=3.0e-01) 

No density mixing

Memory estimate:
  Process memory now: 976.33 MiB
  Calculator: 3.45 MiB
    Density: 0.34 MiB
      Arrays: 0.14 MiB
      Localized functions: 0.11 MiB
      Mixer: 0.09 MiB
    Hamiltonian: 0.10 MiB
      Arrays: 0.09 MiB
      XC: 0.00 MiB
      Poisson: 0.00 MiB
      vbar: 0.00 MiB
    Wavefunctions: 3.01 MiB
      Arrays psit_nG: 1.44 MiB
      Eigensolver: 0.05 MiB
      Projections: 0.11 MiB
      Projectors: 1.23 MiB
      Overlap op: 0.03 MiB
      PW-descriptor: 0.15 MiB

Total number of cores used: 1

Number of atoms: 1
Number of atomic orbitals: 9
Number of bands in calculation: 8
Bands to converge: all
Number of valence electrons: 8

... initialized

Initializing position-dependent things.

Creating initial wave functions:
  8 bands from LCAO basis set

                
                
                
       Fe       
                
                
                
                

Positions:
   0 Fe     0.000000    0.000000    0.000000

Unit cell:
           periodic     x           y           z      points  spacing
  1. axis:    yes   -1.435000    1.435000    1.435000     9     0.2255
  2. axis:    yes    1.435000   -1.435000    1.435000     9     0.2255
  3. axis:    yes    1.435000    1.435000   -1.435000     9     0.2255

  Lengths:   2.485493   2.485493   2.485493
  Angles:  109.471221 109.471221 109.471221

Effective grid spacing dv^(1/3) = 0.2531

                     log10-error:    total        iterations:
           time      wfs    density  energy       fermi  poisson
iter:   1  21:09:49  +1.91           -9.973589    4             
iter:   2  21:09:50  +1.19          -10.007807    4             
iter:   3  21:09:52  +0.24          -10.013361    4             
iter:   4  21:09:53  +0.04          -10.013810    4             
iter:   5  21:09:55  +0.82          -10.013867    4             
iter:   6  21:09:57  +0.60          -10.013877    4             
iter:   7  21:09:58  +0.48          -10.013878    4             
iter:   8  21:10:00  +0.30          -10.013878    4             
iter:   9  21:10:00  -0.55          -10.013878    4             
iter:  10  21:10:01  -1.48          -10.013878    4             
iter:  11  21:10:02  -2.23          -10.013878    4             
iter:  12  21:10:02  -3.02          -10.013878    4             
iter:  13  21:10:02  -2.85          -10.013878    4             
iter:  14  21:10:03  -4.56          -10.013878    4             
iter:  15  21:10:03  -4.11          -10.013878    4             
iter:  16  21:10:03  -4.69          -10.013878    4             
iter:  17  21:10:03  -5.03          -10.013878    4             
iter:  18  21:10:04  -5.39          -10.013878    4             
iter:  19  21:10:04  -5.89          -10.013878    4             
iter:  20  21:10:04  -5.47          -10.013878    4             
iter:  21  21:10:04  -5.88          -10.013878    4             
iter:  22  21:10:05  -5.46          -10.013878    4             
iter:  23  21:10:05  -5.86          -10.013878    4             
iter:  24  21:10:05  -5.45          -10.013878    4             
iter:  25  21:10:05  -5.83          -10.013878    4             
iter:  26  21:10:06  -5.45          -10.013878    4             
iter:  27  21:10:06  -5.87          -10.013878    4             
iter:  28  21:10:06  -5.44          -10.013878    4             
iter:  29  21:10:06  -5.86          -10.013878    4             
iter:  30  21:10:06  -5.42          -10.013878    4             
iter:  31  21:10:07  -5.80          -10.013878    4             
iter:  32  21:10:07  -5.23          -10.013878    4             
iter:  33  21:10:07  -5.23          -10.013878    4             
iter:  34  21:10:07  -4.19          -10.013878    4             
iter:  35  21:10:08  -3.28          -10.013878    4             
iter:  36  21:10:08  -2.13          -10.013878    4             
iter:  37  21:10:08  -1.67          -10.013878    4             
iter:  38  21:10:08  -0.38          -10.013878    4             
iter:  39  21:10:08  -1.14          -10.013878    4             
iter:  40  21:10:09  -2.24          -10.013878    4             
iter:  41  21:10:09  -2.98          -10.013878    4             
iter:  42  21:10:09  -3.60          -10.013878    4             
iter:  43  21:10:09  -4.31          -10.013878    4             
iter:  44  21:10:10  -4.92          -10.013878    4             
iter:  45  21:10:10  -6.53          -10.013878    4             
iter:  46  21:10:10  -6.73          -10.013878    4             
iter:  47  21:10:10  -7.73          -10.013878    4             

Converged after 47 iterations.

Dipole moment: (0.000000, 0.000000, -0.000000) |e|*Ang

Energy contributions relative to reference atoms: (reference = -34619.454600)

Kinetic:         -4.956736
Potential:       +2.396847
External:        +0.000000
XC:              -7.745398
Entropy (-ST):   -0.012397
Local:           +0.297607
--------------------------
Free energy:    -10.020076
Extrapolated:   -10.013878

Fixed Fermi level: 9.61934

Warning: Showing only first 2 kpts
 Kpt  Band  Eigenvalues  Occupancy
  0     2      8.11986    0.04000
  0     3      8.12013    0.04000
  0     4      9.58564    0.01182
  0     5      9.58568    0.01181

  1     2      8.11144    0.04000
  1     3      8.14196    0.04000
  1     4      9.53535    0.03353
  1     5      9.60467    0.00558


Timing:                              incl.     excl.
-----------------------------------------------------------
Hamiltonian:                         0.348     0.001   0.0% |
 Atomic:                             0.331     0.003   0.0% |
  XC Correction:                     0.328     0.328   0.8% |
 Calculate atomic Hamiltonians:      0.002     0.002   0.0% |
 Communicate:                        0.000     0.000   0.0% |
 Initialize Hamiltonian:             0.000     0.000   0.0% |
 Poisson:                            0.000     0.000   0.0% |
 XC 3D grid:                         0.014     0.014   0.0% |
LCAO initialization:                 2.323     0.301   0.8% |
 LCAO eigensolver:                   1.007     0.007   0.0% |
  Calculate projections:             0.002     0.002   0.0% |
  DenseAtomicCorrection:             0.013     0.013   0.0% |
  Distribute overlap matrix:         0.003     0.003   0.0% |
  Orbital Layouts:                   0.030     0.030   0.1% |
  Potential matrix:                  0.143     0.143   0.4% |
  Sum over cells:                    0.808     0.808   2.1% ||
 LCAO to grid:                       0.259     0.259   0.7% |
 Set positions (LCAO WFS):           0.756     0.001   0.0% |
  Basic WFS set positions:           0.006     0.006   0.0% |
  Basis functions set positions:     0.000     0.000   0.0% |
  TCI: Calculate S, T, P:            0.750     0.750   1.9% ||
PWDescriptor:                        0.013     0.013   0.0% |
Redistribute:                        0.000     0.000   0.0% |
SCF-cycle:                          34.231     3.040   7.8% |--|
 CG:                                14.994    13.231  33.8% |-------------|
  CG: orthonormalize:                1.763     1.033   2.6% ||
   CG: overlap:                      0.433     0.433   1.1% |
   CG: overlap2:                     0.297     0.297   0.8% |
 Davidson:                           4.464     2.568   6.6% |--|
  calc. matrices:                    1.003     1.003   2.6% ||
  diagonalize:                       0.726     0.726   1.9% ||
  rotate_psi:                        0.167     0.167   0.4% |
 Density:                            0.887     0.001   0.0% |
  Atomic density matrices:           0.079     0.079   0.2% |
  Mix:                               0.063     0.063   0.2% |
  Multipole moments:                 0.005     0.005   0.0% |
  Pseudo density:                    0.738     0.614   1.6% ||
   Symmetrize density:               0.124     0.124   0.3% |
 Hamiltonian:                        3.969     0.012   0.0% |
  Atomic:                            3.700     0.033   0.1% |
   XC Correction:                    3.668     3.668   9.4% |---|
  Calculate atomic Hamiltonians:     0.029     0.029   0.1% |
  Communicate:                       0.000     0.000   0.0% |
  Poisson:                           0.004     0.004   0.0% |
  XC 3D grid:                        0.223     0.223   0.6% |
 Orthonormalize:                     0.068     0.005   0.0% |
  Band Layouts:                      0.004     0.001   0.0% |
   Inverse Cholesky:                 0.003     0.003   0.0% |
  calc_s_matrix:                     0.011     0.011   0.0% |
  projections:                       0.039     0.039   0.1% |
  rotate_psi:                        0.009     0.009   0.0% |
 Residuals:                          1.713     1.713   4.4% |-|
 Subspace diag:                      5.095     0.343   0.9% |
  Band Layouts:                      0.764     0.099   0.3% |
   Diagonalize:                      0.594     0.594   1.5% ||
   Distribute results:               0.071     0.071   0.2% |
  calc_h_matrix:                     3.353     3.353   8.6% |--|
  rotate_psi:                        0.635     0.635   1.6% ||
Set symmetry:                        0.108     0.108   0.3% |
Other:                               2.126     2.126   5.4% |-|
-----------------------------------------------------------
Total:                                        39.149 100.0%

Date: Tue Feb  2 21:10:11 2021
element =  Fe
struct =  bcc
kpts =  (8,8,8)
element =  Fe
configuration =  [Ar] 3d6 4s2 4p0
valence =  ['3d', '4s', '4p']
occupations =  {'3d': 6, '4s': 2, '4p': 0}
nls =  3d
rNum =  600
lmax =  d
*******************************************
Starting confinement parameter optimization
Adjustable parameters and initial values:
  Fe_3d.r0 : 4.988877
  Fe_4p.r0 : 4.988877
  Fe_4s.r0 : 4.988877
  Fe_n.r0 : 7.483315
*******************************************

OPT_VAL: 4.988876972209491   4.988876972209491   4.988876972209491   7.4833154583142365
VCONF:
  Fe_3d : PowerConfinement(r0=4.988877, s=2.000000)
  Fe_4p : PowerConfinement(r0=4.988877, s=2.000000)
  Fe_4s : PowerConfinement(r0=4.988877, s=2.000000)
  Fe_n : PowerConfinement(r0=7.483315, s=2.000000)
RESIDUAL: 0.0

OPT_VAL: 5.188876972209491   4.988876972209491   4.988876972209491   7.4833154583142365
VCONF:
  Fe_3d : PowerConfinement(r0=5.188877, s=2.000000)
  Fe_4p : PowerConfinement(r0=4.988877, s=2.000000)
  Fe_4s : PowerConfinement(r0=4.988877, s=2.000000)
  Fe_n : PowerConfinement(r0=7.483315, s=2.000000)
RESIDUAL: 0.0

OPT_VAL: 4.988876972209491   5.188876972209491   4.988876972209491   7.4833154583142365
VCONF:
  Fe_3d : PowerConfinement(r0=4.988877, s=2.000000)
  Fe_4p : PowerConfinement(r0=5.188877, s=2.000000)
  Fe_4s : PowerConfinement(r0=4.988877, s=2.000000)
  Fe_n : PowerConfinement(r0=7.483315, s=2.000000)
RESIDUAL: 0.0

OPT_VAL: 4.988876972209491   4.988876972209491   5.188876972209491   7.4833154583142365
VCONF:
  Fe_3d : PowerConfinement(r0=4.988877, s=2.000000)
  Fe_4p : PowerConfinement(r0=4.988877, s=2.000000)
  Fe_4s : PowerConfinement(r0=5.188877, s=2.000000)
  Fe_n : PowerConfinement(r0=7.483315, s=2.000000)
RESIDUAL: 0.0

OPT_VAL: 4.988876972209491   4.988876972209491   4.988876972209491   7.683315458314237
VCONF:
  Fe_3d : PowerConfinement(r0=4.988877, s=2.000000)
  Fe_4p : PowerConfinement(r0=4.988877, s=2.000000)
  Fe_4s : PowerConfinement(r0=4.988877, s=2.000000)
  Fe_n : PowerConfinement(r0=7.683315, s=2.000000)
RESIDUAL: 0.0

OPT_VAL: 5.013876972209491   4.988876972209491   4.988876972209491   7.4833154583142365
VCONF:
  Fe_3d : PowerConfinement(r0=5.013877, s=2.000000)
  Fe_4p : PowerConfinement(r0=4.988877, s=2.000000)
  Fe_4s : PowerConfinement(r0=4.988877, s=2.000000)
  Fe_n : PowerConfinement(r0=7.483315, s=2.000000)
RESIDUAL: 0.0

OPT_VAL: 4.988876972209491   5.013876972209491   4.988876972209491   7.4833154583142365
VCONF:
  Fe_3d : PowerConfinement(r0=4.988877, s=2.000000)
  Fe_4p : PowerConfinement(r0=5.013877, s=2.000000)
  Fe_4s : PowerConfinement(r0=4.988877, s=2.000000)
  Fe_n : PowerConfinement(r0=7.483315, s=2.000000)
RESIDUAL: 0.0

OPT_VAL: 4.988876972209491   4.988876972209491   5.013876972209491   7.4833154583142365
VCONF:
  Fe_3d : PowerConfinement(r0=4.988877, s=2.000000)
  Fe_4p : PowerConfinement(r0=4.988877, s=2.000000)
  Fe_4s : PowerConfinement(r0=5.013877, s=2.000000)
  Fe_n : PowerConfinement(r0=7.483315, s=2.000000)
RESIDUAL: 0.0

OPT_VAL: 4.988876972209491   4.988876972209491   4.988876972209491   7.508315458314237
VCONF:
  Fe_3d : PowerConfinement(r0=4.988877, s=2.000000)
  Fe_4p : PowerConfinement(r0=4.988877, s=2.000000)
  Fe_4s : PowerConfinement(r0=4.988877, s=2.000000)
  Fe_n : PowerConfinement(r0=7.508315, s=2.000000)
RESIDUAL: 0.0

OPT_VAL: 4.993876972209491   4.988876972209491   4.988876972209491   7.4833154583142365
VCONF:
  Fe_3d : PowerConfinement(r0=4.993877, s=2.000000)
  Fe_4p : PowerConfinement(r0=4.988877, s=2.000000)
  Fe_4s : PowerConfinement(r0=4.988877, s=2.000000)
  Fe_n : PowerConfinement(r0=7.483315, s=2.000000)
RESIDUAL: 0.0

OPT_VAL: 4.988876972209491   4.993876972209491   4.988876972209491   7.4833154583142365
VCONF:
  Fe_3d : PowerConfinement(r0=4.988877, s=2.000000)
  Fe_4p : PowerConfinement(r0=4.993877, s=2.000000)
  Fe_4s : PowerConfinement(r0=4.988877, s=2.000000)
  Fe_n : PowerConfinement(r0=7.483315, s=2.000000)
RESIDUAL: 0.0

OPT_VAL: 4.988876972209491   4.988876972209491   4.993876972209491   7.4833154583142365
VCONF:
  Fe_3d : PowerConfinement(r0=4.988877, s=2.000000)
  Fe_4p : PowerConfinement(r0=4.988877, s=2.000000)
  Fe_4s : PowerConfinement(r0=4.993877, s=2.000000)
  Fe_n : PowerConfinement(r0=7.483315, s=2.000000)
RESIDUAL: 0.0

OPT_VAL: 4.988876972209491   4.988876972209491   4.988876972209491   7.488315458314236
VCONF:
  Fe_3d : PowerConfinement(r0=4.988877, s=2.000000)
  Fe_4p : PowerConfinement(r0=4.988877, s=2.000000)
  Fe_4s : PowerConfinement(r0=4.988877, s=2.000000)
  Fe_n : PowerConfinement(r0=7.488315, s=2.000000)
RESIDUAL: 0.0

*******************************************
Optimization finished after 13 iterations
Adjustable parameters and final values:
  Fe_3d.r0 : 4.988877
  Fe_4p.r0 : 4.988877
  Fe_4s.r0 : 4.988877
  Fe_n.r0 : 7.483315
*******************************************

VCONF:
  Fe_3d : PowerConfinement(r0=4.988877, s=2.000000)
  Fe_4p : PowerConfinement(r0=4.988877, s=2.000000)
  Fe_4s : PowerConfinement(r0=4.988877, s=2.000000)
  Fe_n : PowerConfinement(r0=7.483315, s=2.000000)
