element =  Ga
struct =  orthorhombic
nbands =  -4
path =  GXSYGZURTZ,YT,UX,SR
kpts =  (8,8,8)

  ___ ___ ___ _ _ _  
 |   |   |_  | | | | 
 | | | | | . | | | | 
 |__ |  _|___|_____|  1.3.1b1
 |___|_|             

User:   inukai@DESKTOP-12SE80T
Date:   Sun Feb 14 03:34:14 2021
Arch:   x86_64
Pid:    10134
Python: 3.6.9
gpaw:   /usr/lib/python3/dist-packages/gpaw
_gpaw:  /usr/lib/python3/dist-packages/_gpaw.cpython-36m-x86_64-linux-gnu.so
ase:    /home/inukai/hotcent/ase-3.19.3/ase (version 3.19.3)
numpy:  /home/inukai/.local/lib/python3.6/site-packages/numpy (version 1.19.5)
scipy:  /home/inukai/.local/lib/python3.6/site-packages/scipy (version 1.5.4)
units:  Angstrom and eV
cores:  1

Input parameters:
  kpts: [8 8 8]
  maxiter: 1500
  mixer: {backend: pulay,
          beta: 0.05,
          method: separate,
          nmaxold: 5,
          weight: 50}
  mode: {ecut: 400.0,
         name: pw}
  occupations: {name: fermi-dirac,
                width: 0.02}
  spinpol: True
  xc: PBE

System changes: positions, numbers, cell, pbc, initial_charges, initial_magmoms 

Initialize ...

Ga-setup:
  name: Gallium
  id: 818a1f824512bb44ae6134ae13584d59
  Z: 31
  valence: 3
  core: 28
  charge: 0.0
  file: /usr/share/gpaw-setups/Ga.PBE.gz
  cutoffs: 1.16(comp), 2.06(filt), 4.17(core), lmax=2
  valence states:
                energy  radius
    4s(2.00)    -8.945   1.164
    4p(1.00)    -2.580   1.164
    *s          18.266   1.164
    *p          24.631   1.164
    *d           0.000   1.164

  Using partial waves for Ga as LCAO basis

Reference energy: -423077.372232

Spin-polarized calculation.
Magnetic moment:  0.000000

Occupation numbers:
  Fermi-Dirac: width=0.0200 eV

Convergence criteria:
  Maximum total energy change: 0.0005 eV / electron
  Maximum integral of absolute density change: 0.0001 electrons
  Maximum integral of absolute eigenstate change: 4e-08 eV^2
  Maximum number of iterations: 1500

Symmetries present (total): 4

  ( 1  0  0)  ( 1  0  0)  (-1  0  0)  (-1  0  0)
  ( 0  1  0)  ( 0 -1  0)  ( 0  1  0)  ( 0 -1  0)
  ( 0  0  1)  ( 0  0 -1)  ( 0  0  1)  ( 0  0 -1)

512 k-points: 8 x 8 x 8 Monkhorst-Pack grid
128 k-points in the irreducible part of the Brillouin zone
       k-points in crystal coordinates                weights
   0:     0.06250000    0.06250000   -0.43750000          4/512
   1:     0.06250000    0.06250000   -0.31250000          4/512
   2:     0.06250000    0.06250000   -0.18750000          4/512
   3:     0.06250000    0.06250000   -0.06250000          4/512
   4:     0.06250000    0.06250000    0.06250000          4/512
   5:     0.06250000    0.06250000    0.18750000          4/512
   6:     0.06250000    0.06250000    0.31250000          4/512
   7:     0.06250000    0.06250000    0.43750000          4/512
   8:     0.06250000    0.18750000   -0.43750000          4/512
   9:     0.06250000    0.18750000   -0.31250000          4/512
          ...
 127:     0.43750000    0.43750000    0.43750000          4/512

Wave functions: Plane wave expansion
  Cutoff energy: 400.000 eV
  Number of coefficients (min, max): 2936, 2990
  Using FFTW library
  Eigensolver: None  MatrixOperator buffer_size: default value or 
                              see value of nblock in input file
Diagonalizer layout: Serial LAPACKOrthonormalizer layout: Serial LAPACK 

Davidson(niter=1, smin=None, normalize=True) 

Densities:
  Coarse grid: 21*36*21 grid
  Fine grid: 42*72*42 grid
  Total Charge: 0.000000 

Density mixing:
  Method: separate
  Backend: pulay
  Linear mixing parameter: 0.05
  Mixing with 5 old densities
  Damping of long wave oscillations: 50 

Hamiltonian:
  XC and Coulomb potentials evaluated on a 42*72*42 grid
  Using the PBE Exchange-Correlation functional
 

Memory estimate:
  Process memory now: 937.40 MiB
  Calculator: 448.37 MiB
    Density: 9.69 MiB
      Arrays: 4.24 MiB
      Localized functions: 3.03 MiB
      Mixer: 2.42 MiB
    Hamiltonian: 3.21 MiB
      Arrays: 3.15 MiB
      XC: 0.00 MiB
      Poisson: 0.00 MiB
      vbar: 0.06 MiB
    Wavefunctions: 435.47 MiB
      Arrays psit_nG: 373.75 MiB
      Eigensolver: 1.85 MiB
      Projections: 13.00 MiB
      Projectors: 40.46 MiB
      Overlap op: 1.48 MiB
      PW-descriptor: 4.94 MiB

Total number of cores used: 1

Number of atoms: 8
Number of atomic orbitals: 32
Number of bands in calculation: 32
Bands to converge: occupied states only
Number of valence electrons: 24

... initialized

Initializing position-dependent things.

Density initialized from atomic densities
Creating initial wave functions:
  32 bands from LCAO basis set

      .----------.  
     /|          |  
    / |   Ga     |  
   /  |          |  
  / Ga|    Ga    |  
 *Ga  |          |  
 |   Ga----------.  
 | Ga/ Ga       /   
 |  /          /    
 | /    Ga    /     
 |/          /      
 *----------*       

Positions:
   0 Ga     0.000000    5.089419    2.673391
   1 Ga     0.000000    6.540526    0.373502
   2 Ga     0.000000    1.212771    4.226276
   3 Ga     0.000000    2.663878    1.926387
   4 Ga     2.283444    1.212771    2.673391
   5 Ga     2.283444    2.663878    0.373502
   6 Ga     2.283444    5.089419    4.226276
   7 Ga     2.283444    6.540526    1.926387

Unit cell:
           periodic     x           y           z      points  spacing
  1. axis:    yes    4.566888    0.000000    0.000000    21     0.2175
  2. axis:    yes    0.000000    7.753297    0.000000    36     0.2154
  3. axis:    yes    0.000000    0.000000    4.599778    21     0.2190

  Lengths:   4.566888   7.753297   4.599778
  Angles:   90.000000  90.000000  90.000000

Effective grid spacing dv^(1/3) = 0.2173

                     log10-error:    total        iterations:
           time      wfs    density  energy       fermi  poisson  magmom
iter:   1  03:35:57  +1.50   +inf   -23.178771    3               -0.0000
iter:   2  03:37:01  -0.78   +inf   -23.236166    3               -0.0000
iter:   3  03:38:06  -2.04   +inf   -23.239511    2               -0.0000
iter:   4  03:39:18  -2.97  -0.90   -23.241535    2               -0.0000
iter:   5  03:40:30  -1.94  -0.93   -23.252941    3               +0.0000
iter:   6  03:41:42  -3.17  -2.33   -23.253137    2               +0.0000
iter:   7  03:42:53  -4.08  -2.37   -23.253051    2               +0.0000
iter:   8  03:44:05  -4.03  -2.47   -23.252972    3               -0.0000
iter:   9  03:45:16  -4.81  -3.06   -23.252932    2               -0.0000
iter:  10  03:46:24  -5.64  -3.02   -23.252946    2               -0.0000
iter:  11  03:47:30  -5.43  -3.09   -23.252957    2               -0.0000
iter:  12  03:48:41  -6.07  -3.32   -23.252951    2               -0.0000
iter:  13  03:49:53  -6.96  -3.66   -23.252951    1               -0.0000
iter:  14  03:51:05  -7.42  -3.68   -23.252952    2               -0.0000
iter:  15  03:52:17  -6.62  -3.65   -23.252951    2               +0.0000
iter:  16  03:53:29  -6.97  -3.91   -23.252951    2               +0.0000
iter:  17  03:54:40  -7.96  -4.26   -23.252951    1               +0.0000

Converged after 17 iterations.

Dipole moment: (-0.000000, 0.000000, -0.000000) |e|*Ang

Total magnetic moment: 0.000000
Local magnetic moments:
   0 Ga -0.000000
   1 Ga 0.000000
   2 Ga 0.000000
   3 Ga -0.000000
   4 Ga 0.000000
   5 Ga 0.000000
   6 Ga 0.000000
   7 Ga -0.000000

Energy contributions relative to reference atoms: (reference = -423077.372232)

Kinetic:        +73.025130
Potential:      -58.626646
External:        +0.000000
XC:             -37.774176
Entropy (-ST):   -0.001816
Local:           +0.123649
--------------------------
Free energy:    -23.253859
Extrapolated:   -23.252951

Spin contamination: 0.000000 electrons
Fermi level: 5.27067

Warning: Showing only first 2 kpts
                      Up                     Down
 Kpt  Band  Eigenvalues  Occupancy  Eigenvalues  Occupancy
  0    10      4.82778    0.00781      4.82778    0.00781
  0    11      5.22852    0.00697      5.22852    0.00697
  0    12      5.32116    0.00058      5.32116    0.00058
  0    13      5.59051    0.00000      5.59051    0.00000

  1    10      4.84564    0.00781      4.84564    0.00781
  1    11      4.96970    0.00781      4.96970    0.00781
  1    12      5.16027    0.00778      5.16027    0.00778
  1    13      5.87946    0.00000      5.87946    0.00000


Input parameters:
  convergence: {bands: all}
  eigensolver: {name: cg,
                niter: 5}
  fixdensity: True
  kpts: {npoints: 50,
         path: GXSYGZURTZ,YT,UX,SR}
  nbands: -4
  symmetry: off

Initialize ...

Ga-setup:
  name: Gallium
  id: 818a1f824512bb44ae6134ae13584d59
  Z: 31
  valence: 3
  core: 28
  charge: 0.0
  file: /usr/share/gpaw-setups/Ga.PBE.gz
  cutoffs: 1.16(comp), 2.06(filt), 4.17(core), lmax=2
  valence states:
                energy  radius
    4s(2.00)    -8.945   1.164
    4p(1.00)    -2.580   1.164
    *s          18.266   1.164
    *p          24.631   1.164
    *d           0.000   1.164

  Using partial waves for Ga as LCAO basis

Reference energy: -423077.372232

Spin-polarized calculation.
Magnetic moment:  0.000000

Occupation numbers:
  Fixed Fermi level
  Fermi-Dirac: width=0.0200 eV

Convergence criteria:
  Maximum total energy change: 0.0005 eV / electron
  Maximum integral of absolute density change: 0.0001 electrons
  Maximum integral of absolute eigenstate change: 4e-08 eV^2
  Maximum number of iterations: 1500

Symmetries present (total): 1

  ( 1  0  0)
  ( 0  1  0)
  ( 0  0  1)

50 k-points
50 k-points in the irreducible part of the Brillouin zone
       k-points in crystal coordinates                weights
   0:     0.00000000    0.00000000    0.00000000          1/50
   1:    -0.12500000    0.00000000    0.00000000          1/50
   2:    -0.25000000    0.00000000    0.00000000          1/50
   3:    -0.37500000    0.00000000    0.00000000          1/50
   4:    -0.50000000    0.00000000    0.00000000          1/50
   5:    -0.50000000    0.00000000   -0.12500000          1/50
   6:    -0.50000000    0.00000000   -0.25000000          1/50
   7:    -0.50000000    0.00000000   -0.37500000          1/50
   8:    -0.50000000    0.00000000   -0.50000000          1/50
   9:    -0.37500000    0.00000000   -0.50000000          1/50
          ...
  49:    -0.50000000   -0.50000000   -0.50000000          1/50

Wave functions: Plane wave expansion
  Cutoff energy: 400.000 eV
  Number of coefficients (min, max): 2932, 3001
  Using FFTW library
  Eigensolver: None  MatrixOperator buffer_size: default value or 
                              see value of nblock in input file
Diagonalizer layout: Serial LAPACKOrthonormalizer layout: Serial LAPACK 

CG(niter=5, rtol=3.0e-01) 

No density mixing

Memory estimate:
  Process memory now: 1499.84 MiB
  Calculator: 108.49 MiB
    Density: 9.69 MiB
      Arrays: 4.24 MiB
      Localized functions: 3.03 MiB
      Mixer: 2.42 MiB
    Hamiltonian: 3.21 MiB
      Arrays: 3.15 MiB
      XC: 0.00 MiB
      Poisson: 0.00 MiB
      vbar: 0.06 MiB
    Wavefunctions: 95.59 MiB
      Arrays psit_nG: 73.27 MiB
      Eigensolver: 0.96 MiB
      Projections: 2.54 MiB
      Projectors: 15.79 MiB
      Overlap op: 0.74 MiB
      PW-descriptor: 2.30 MiB

Total number of cores used: 1

Number of atoms: 8
Number of atomic orbitals: 32
Number of bands in calculation: 16
Bands to converge: all
Number of valence electrons: 24

... initialized

Initializing position-dependent things.

Creating initial wave functions:
  16 bands from LCAO basis set

      .----------.  
     /|          |  
    / |   Ga     |  
   /  |          |  
  / Ga|    Ga    |  
 *Ga  |          |  
 |   Ga----------.  
 | Ga/ Ga       /   
 |  /          /    
 | /    Ga    /     
 |/          /      
 *----------*       

Positions:
   0 Ga     0.000000    5.089419    2.673391
   1 Ga     0.000000    6.540526    0.373502
   2 Ga     0.000000    1.212771    4.226276
   3 Ga     0.000000    2.663878    1.926387
   4 Ga     2.283444    1.212771    2.673391
   5 Ga     2.283444    2.663878    0.373502
   6 Ga     2.283444    5.089419    4.226276
   7 Ga     2.283444    6.540526    1.926387

Unit cell:
           periodic     x           y           z      points  spacing
  1. axis:    yes    4.566888    0.000000    0.000000    21     0.2175
  2. axis:    yes    0.000000    7.753297    0.000000    36     0.2154
  3. axis:    yes    0.000000    0.000000    4.599778    21     0.2190

  Lengths:   4.566888   7.753297   4.599778
  Angles:   90.000000  90.000000  90.000000

Effective grid spacing dv^(1/3) = 0.2173

                     log10-error:    total        iterations:
           time      wfs    density  energy       fermi  poisson  magmom
iter:   1  03:55:59  +0.82          -22.717644    5               +0.0000
iter:   2  03:57:01  -0.45          -22.807199    5               +0.0000
iter:   3  03:58:13  -1.54          -22.815928    5               +0.0000
iter:   4  03:59:27  -2.35          -22.817303    5               +0.0000
iter:   5  04:00:40  -3.14          -22.817569    5               +0.0000
iter:   6  04:01:51  -3.90          -22.817628    5               +0.0000
iter:   7  04:03:11  -4.62          -22.817637    5               +0.0000
iter:   8  04:04:33  -5.40          -22.817639    5               +0.0000
iter:   9  04:05:47  -6.14          -22.817639    5               +0.0000
iter:  10  04:06:45  -6.78          -22.817639    5               +0.0000
iter:  11  04:07:21  -7.45          -22.817639    5               +0.0000

Converged after 11 iterations.

Dipole moment: (-0.000000, 0.000000, -0.000000) |e|*Ang

Total magnetic moment: 0.000000
Local magnetic moments:
   0 Ga -0.000000
   1 Ga 0.000000
   2 Ga 0.000000
   3 Ga -0.000000
   4 Ga 0.000000
   5 Ga 0.000000
   6 Ga 0.000000
   7 Ga -0.000000

Energy contributions relative to reference atoms: (reference = -423077.372232)

Kinetic:        +73.460577
Potential:      -58.625024
External:        +0.000000
XC:             -37.772768
Entropy (-ST):   -0.005458
Local:           +0.122304
--------------------------
Free energy:    -22.820368
Extrapolated:   -22.817639

Spin contamination: 0.000000 electrons
Fixed Fermi level: 5.27067

Warning: Showing only first 2 kpts
                      Up                     Down
 Kpt  Band  Eigenvalues  Occupancy  Eigenvalues  Occupancy
  0    10      3.78225    0.02000      3.78225    0.02000
  0    11      4.64613    0.02000      4.64613    0.02000
  0    12      6.17623    0.00000      6.17623    0.00000
  0    13      6.24608    0.00000      6.24608    0.00000

  1    10      4.72679    0.02000      4.72679    0.02000
  1    11      4.94930    0.02000      4.94930    0.02000
  1    12      5.53057    0.00000      5.53057    0.00000
  1    13      6.22150    0.00000      6.22150    0.00000


Timing:                              incl.     excl.
-----------------------------------------------------------
Hamiltonian:                         3.583     0.004   0.0% |
 Atomic:                             2.477     0.005   0.0% |
  XC Correction:                     2.472     2.472   0.1% |
 Calculate atomic Hamiltonians:      0.366     0.366   0.0% |
 Communicate:                        0.000     0.000   0.0% |
 Initialize Hamiltonian:             0.000     0.000   0.0% |
 Poisson:                            0.002     0.002   0.0% |
 XC 3D grid:                         0.734     0.734   0.0% |
LCAO initialization:                39.481     0.058   0.0% |
 LCAO eigensolver:                   3.199     0.037   0.0% |
  Calculate projections:             0.087     0.087   0.0% |
  DenseAtomicCorrection:             0.267     0.267   0.0% |
  Distribute overlap matrix:         0.017     0.017   0.0% |
  Orbital Layouts:                   0.943     0.943   0.0% |
  Potential matrix:                  0.894     0.894   0.0% |
  Sum over cells:                    0.954     0.954   0.0% |
 LCAO to grid:                      32.513    32.513   1.6% ||
 Set positions (LCAO WFS):           3.711     0.017   0.0% |
  Basic WFS set positions:           0.002     0.002   0.0% |
  Basis functions set positions:     0.000     0.000   0.0% |
  TCI: Calculate S, T, P:            3.691     3.691   0.2% |
PWDescriptor:                        0.194     0.194   0.0% |
Redistribute:                        0.000     0.000   0.0% |
SCF-cycle:                        1939.391     6.034   0.3% |
 CG:                               678.161   655.922  33.0% |------------|
  CG: orthonormalize:               22.239    10.343   0.5% |
   CG: overlap:                      7.221     7.221   0.4% |
   CG: overlap2:                     4.676     4.676   0.2% |
 Davidson:                         688.793   247.403  12.4% |----|
  calc. matrices:                  384.462   384.462  19.3% |-------|
  diagonalize:                      43.300    43.300   2.2% ||
  rotate_psi:                       13.627    13.627   0.7% |
 Density:                           86.291     0.001   0.0% |
  Atomic density matrices:           0.559     0.559   0.0% |
  Mix:                               2.496     2.496   0.1% |
  Multipole moments:                 0.004     0.004   0.0% |
  Pseudo density:                   83.232    83.106   4.2% |-|
   Symmetrize density:               0.126     0.126   0.0% |
 Hamiltonian:                       22.821     0.019   0.0% |
  Atomic:                           15.649     0.021   0.0% |
   XC Correction:                   15.628    15.628   0.8% |
  Calculate atomic Hamiltonians:     2.375     2.375   0.1% |
  Communicate:                       0.000     0.000   0.0% |
  Poisson:                           0.009     0.009   0.0% |
  XC 3D grid:                        4.769     4.769   0.2% |
 Orthonormalize:                     6.270     0.037   0.0% |
  Band Layouts:                      0.055     0.008   0.0% |
   Inverse Cholesky:                 0.047     0.047   0.0% |
  calc_s_matrix:                     0.406     0.406   0.0% |
  projections:                       5.311     5.311   0.3% |
  rotate_psi:                        0.461     0.461   0.0% |
 Residuals:                         16.734    16.734   0.8% |
 Subspace diag:                    434.286     1.054   0.1% |
  Band Layouts:                      9.753     0.241   0.0% |
   Diagonalize:                      9.330     9.330   0.5% |
   Distribute results:               0.182     0.182   0.0% |
  calc_h_matrix:                   411.801   411.801  20.7% |-------|
  rotate_psi:                       11.679    11.679   0.6% |
Set symmetry:                        0.041     0.041   0.0% |
Other:                               5.510     5.510   0.3% |
-----------------------------------------------------------
Total:                                      1988.199 100.0%

Date: Sun Feb 14 04:07:22 2021
element =  Ga
struct =  orthorhombic
kpts =  (8,8,8)
element =  Ga
configuration =  [Ar] 3d10 4s2 4p1 4d0
valence =  ['4s', '4p', '4d']
occupations =  {'4s': 2, '4p': 1, '4d': 0}
nls =  4p
rNum =  600
lmax =  d
*******************************************
Starting confinement parameter optimization
Adjustable parameters and initial values:
  Ga_4d.r0 : 4.610932
  Ga_4p.r0 : 4.610932
  Ga_4s.r0 : 4.610932
  Ga_n.r0 : 6.916398
*******************************************

OPT_VAL: 4.610931747042105   4.610931747042105   4.610931747042105   6.916397620563158
VCONF:
  Ga_4d : PowerConfinement(r0=4.610932, s=2.000000)
  Ga_4p : PowerConfinement(r0=4.610932, s=2.000000)
  Ga_4s : PowerConfinement(r0=4.610932, s=2.000000)
  Ga_n : PowerConfinement(r0=6.916398, s=2.000000)
RESIDUAL: 0.0

OPT_VAL: 4.810931747042106   4.610931747042105   4.610931747042105   6.916397620563158
VCONF:
  Ga_4d : PowerConfinement(r0=4.810932, s=2.000000)
  Ga_4p : PowerConfinement(r0=4.610932, s=2.000000)
  Ga_4s : PowerConfinement(r0=4.610932, s=2.000000)
  Ga_n : PowerConfinement(r0=6.916398, s=2.000000)
RESIDUAL: 0.0

OPT_VAL: 4.610931747042105   4.810931747042106   4.610931747042105   6.916397620563158
VCONF:
  Ga_4d : PowerConfinement(r0=4.610932, s=2.000000)
  Ga_4p : PowerConfinement(r0=4.810932, s=2.000000)
  Ga_4s : PowerConfinement(r0=4.610932, s=2.000000)
  Ga_n : PowerConfinement(r0=6.916398, s=2.000000)
RESIDUAL: 0.0

OPT_VAL: 4.610931747042105   4.610931747042105   4.810931747042106   6.916397620563158
VCONF:
  Ga_4d : PowerConfinement(r0=4.610932, s=2.000000)
  Ga_4p : PowerConfinement(r0=4.610932, s=2.000000)
  Ga_4s : PowerConfinement(r0=4.810932, s=2.000000)
  Ga_n : PowerConfinement(r0=6.916398, s=2.000000)
RESIDUAL: 0.0

OPT_VAL: 4.610931747042105   4.610931747042105   4.610931747042105   7.116397620563158
VCONF:
  Ga_4d : PowerConfinement(r0=4.610932, s=2.000000)
  Ga_4p : PowerConfinement(r0=4.610932, s=2.000000)
  Ga_4s : PowerConfinement(r0=4.610932, s=2.000000)
  Ga_n : PowerConfinement(r0=7.116398, s=2.000000)
RESIDUAL: 0.0

OPT_VAL: 4.635931747042106   4.610931747042105   4.610931747042105   6.916397620563158
VCONF:
  Ga_4d : PowerConfinement(r0=4.635932, s=2.000000)
  Ga_4p : PowerConfinement(r0=4.610932, s=2.000000)
  Ga_4s : PowerConfinement(r0=4.610932, s=2.000000)
  Ga_n : PowerConfinement(r0=6.916398, s=2.000000)
RESIDUAL: 0.0

OPT_VAL: 4.610931747042105   4.635931747042106   4.610931747042105   6.916397620563158
VCONF:
  Ga_4d : PowerConfinement(r0=4.610932, s=2.000000)
  Ga_4p : PowerConfinement(r0=4.635932, s=2.000000)
  Ga_4s : PowerConfinement(r0=4.610932, s=2.000000)
  Ga_n : PowerConfinement(r0=6.916398, s=2.000000)
RESIDUAL: 0.0

OPT_VAL: 4.610931747042105   4.610931747042105   4.635931747042106   6.916397620563158
VCONF:
  Ga_4d : PowerConfinement(r0=4.610932, s=2.000000)
  Ga_4p : PowerConfinement(r0=4.610932, s=2.000000)
  Ga_4s : PowerConfinement(r0=4.635932, s=2.000000)
  Ga_n : PowerConfinement(r0=6.916398, s=2.000000)
RESIDUAL: 0.0

OPT_VAL: 4.610931747042105   4.610931747042105   4.610931747042105   6.9413976205631585
VCONF:
  Ga_4d : PowerConfinement(r0=4.610932, s=2.000000)
  Ga_4p : PowerConfinement(r0=4.610932, s=2.000000)
  Ga_4s : PowerConfinement(r0=4.610932, s=2.000000)
  Ga_n : PowerConfinement(r0=6.941398, s=2.000000)
RESIDUAL: 0.0

OPT_VAL: 4.615931747042105   4.610931747042105   4.610931747042105   6.916397620563158
VCONF:
  Ga_4d : PowerConfinement(r0=4.615932, s=2.000000)
  Ga_4p : PowerConfinement(r0=4.610932, s=2.000000)
  Ga_4s : PowerConfinement(r0=4.610932, s=2.000000)
  Ga_n : PowerConfinement(r0=6.916398, s=2.000000)
RESIDUAL: 0.0

OPT_VAL: 4.610931747042105   4.615931747042105   4.610931747042105   6.916397620563158
VCONF:
  Ga_4d : PowerConfinement(r0=4.610932, s=2.000000)
  Ga_4p : PowerConfinement(r0=4.615932, s=2.000000)
  Ga_4s : PowerConfinement(r0=4.610932, s=2.000000)
  Ga_n : PowerConfinement(r0=6.916398, s=2.000000)
RESIDUAL: 0.0

OPT_VAL: 4.610931747042105   4.610931747042105   4.615931747042105   6.916397620563158
VCONF:
  Ga_4d : PowerConfinement(r0=4.610932, s=2.000000)
  Ga_4p : PowerConfinement(r0=4.610932, s=2.000000)
  Ga_4s : PowerConfinement(r0=4.615932, s=2.000000)
  Ga_n : PowerConfinement(r0=6.916398, s=2.000000)
RESIDUAL: 0.0

OPT_VAL: 4.610931747042105   4.610931747042105   4.610931747042105   6.921397620563158
VCONF:
  Ga_4d : PowerConfinement(r0=4.610932, s=2.000000)
  Ga_4p : PowerConfinement(r0=4.610932, s=2.000000)
  Ga_4s : PowerConfinement(r0=4.610932, s=2.000000)
  Ga_n : PowerConfinement(r0=6.921398, s=2.000000)
RESIDUAL: 0.0

*******************************************
Optimization finished after 13 iterations
Adjustable parameters and final values:
  Ga_4d.r0 : 4.610932
  Ga_4p.r0 : 4.610932
  Ga_4s.r0 : 4.610932
  Ga_n.r0 : 6.916398
*******************************************

VCONF:
  Ga_4d : PowerConfinement(r0=4.610932, s=2.000000)
  Ga_4p : PowerConfinement(r0=4.610932, s=2.000000)
  Ga_4s : PowerConfinement(r0=4.610932, s=2.000000)
  Ga_n : PowerConfinement(r0=6.916398, s=2.000000)
