
     Program PWSCF v.6.0 (svn rev. 13079) starts on 25Feb2021 at 11:24:18 

     This program is part of the open-source Quantum ESPRESSO suite
     for quantum simulation of materials; please cite
         "P. Giannozzi et al., J. Phys.:Condens. Matter 21 395502 (2009);
          URL http://www.quantum-espresso.org", 
     in publications or presentations arising from this work. More details at
     http://www.quantum-espresso.org/quote

     Parallel version (MPI), running on     1 processors
     Reading input from espresso.pwi
Warning: card &IONS ignored
Warning: card / ignored
Warning: card &CELL ignored
Warning: card / ignored

     Current dimensions of program PWSCF are:
     Max number of different atomic species (ntypx) = 10
     Max number of k-points (npk) =  40000
     Max angular momentum in pseudopotentials (lmaxx) =  3
     Message from routine input:
     WARNING: "startingwfc" set to atomic+random may spoil restart

     Atomic positions and unit cell read from directory:
     ./pwscf.save/


     IMPORTANT: XC functional enforced from input :
     Exchange-correlation      = PBE ( 1  4  3  4 0 0)
     Any further DFT definition will be discarded
     Please, verify this is what you really want


     Subspace diagonalization in iterative solution of the eigenvalue problem:
     a serial algorithm will be used


     G-vector sticks info
     --------------------
     sticks:   dense  smooth     PW     G-vecs:    dense   smooth      PW
     Sum         739     599    181                12695     9189    1553



     bravais-lattice index     =            0
     lattice parameter (alat)  =       7.0224  a.u.
     unit-cell volume          =     266.5890 (a.u.)^3
     number of atoms/cell      =            1
     number of atomic types    =            1
     number of electrons       =         9.00
     number of Kohn-Sham states=            9
     kinetic-energy cutoff     =      40.0000  Ry
     charge density cutoff     =     200.0000  Ry
     Exchange-correlation      = PBE ( 1  4  3  4 0 0)

     celldm(1)=   7.022440  celldm(2)=   0.000000  celldm(3)=   0.000000
     celldm(4)=   0.000000  celldm(5)=   0.000000  celldm(6)=   0.000000

     crystal axes: (cart. coord. in units of alat)
               a(1) = (  -0.577350   0.577350   0.577350 )  
               a(2) = (   0.577350  -0.577350   0.577350 )  
               a(3) = (   0.577350   0.577350  -0.577350 )  

     reciprocal axes: (cart. coord. in units 2 pi/alat)
               b(1) = (  0.000000  0.866025  0.866025 )  
               b(2) = (  0.866025  0.000000  0.866025 )  
               b(3) = (  0.866025  0.866025  0.000000 )  


     PseudoPot. # 1 for Na read from file:
     /home/inukai/tango/tests/1element/qe_fit_v2_Na/../pseudo/na_pbe_v1.5.uspp.F.UPF
     MD5 check sum: 44600605ef58000f06b90626533354dc
     Pseudo is Ultrasoft, Zval =  9.0
     Generated by new atomic code, or converted to UPF format
     Using radial grid of  819 points,  5 beta functions with: 
                l(1) =   0
                l(2) =   0
                l(3) =   1
                l(4) =   1
                l(5) =   2
     Q(r) pseudized with  8 coefficients,  rinner =    1.250   1.250   1.250
                                                       1.250   1.250

     atomic species   valence    mass     pseudopotential
        Na             9.00    22.98977     Na( 1.00)

     48 Sym. Ops., with inversion, found


                                    s                        frac. trans.

      isym =  1     identity                                     

 cryst.   s( 1) = (     1          0          0      )
                  (     0          1          0      )
                  (     0          0          1      )

 cart.    s( 1) = (  1.0000000  0.0000000  0.0000000 )
                  (  0.0000000  1.0000000  0.0000000 )
                  (  0.0000000  0.0000000  1.0000000 )


      isym =  2     180 deg rotation - cart. axis [0,0,1]        

 cryst.   s( 2) = (     0          1          0      )
                  (     1          0          0      )
                  (    -1         -1         -1      )

 cart.    s( 2) = ( -1.0000000  0.0000000  0.0000000 )
                  (  0.0000000 -1.0000000  0.0000000 )
                  (  0.0000000  0.0000000  1.0000000 )


      isym =  3     180 deg rotation - cart. axis [0,1,0]        

 cryst.   s( 3) = (     0          0          1      )
                  (    -1         -1         -1      )
                  (     1          0          0      )

 cart.    s( 3) = ( -1.0000000  0.0000000  0.0000000 )
                  (  0.0000000  1.0000000  0.0000000 )
                  (  0.0000000  0.0000000 -1.0000000 )


      isym =  4     180 deg rotation - cart. axis [1,0,0]        

 cryst.   s( 4) = (    -1         -1         -1      )
                  (     0          0          1      )
                  (     0          1          0      )

 cart.    s( 4) = (  1.0000000  0.0000000  0.0000000 )
                  (  0.0000000 -1.0000000  0.0000000 )
                  (  0.0000000  0.0000000 -1.0000000 )


      isym =  5     180 deg rotation - cart. axis [1,1,0]        

 cryst.   s( 5) = (    -1          0          0      )
                  (     0         -1          0      )
                  (     1          1          1      )

 cart.    s( 5) = (  0.0000000  1.0000000  0.0000000 )
                  (  1.0000000  0.0000000  0.0000000 )
                  (  0.0000000  0.0000000 -1.0000000 )


      isym =  6     180 deg rotation - cart. axis [1,-1,0]       

 cryst.   s( 6) = (     0         -1          0      )
                  (    -1          0          0      )
                  (     0          0         -1      )

 cart.    s( 6) = (  0.0000000 -1.0000000  0.0000000 )
                  ( -1.0000000  0.0000000  0.0000000 )
                  (  0.0000000  0.0000000 -1.0000000 )


      isym =  7      90 deg rotation - cart. axis [0,0,-1]       

 cryst.   s( 7) = (     1          1          1      )
                  (     0          0         -1      )
                  (    -1          0          0      )

 cart.    s( 7) = (  0.0000000  1.0000000  0.0000000 )
                  ( -1.0000000  0.0000000  0.0000000 )
                  (  0.0000000  0.0000000  1.0000000 )


      isym =  8      90 deg rotation - cart. axis [0,0,1]        

 cryst.   s( 8) = (     0          0         -1      )
                  (     1          1          1      )
                  (     0         -1          0      )

 cart.    s( 8) = (  0.0000000 -1.0000000  0.0000000 )
                  (  1.0000000  0.0000000  0.0000000 )
                  (  0.0000000  0.0000000  1.0000000 )


      isym =  9     180 deg rotation - cart. axis [1,0,1]        

 cryst.   s( 9) = (    -1          0          0      )
                  (     1          1          1      )
                  (     0          0         -1      )

 cart.    s( 9) = (  0.0000000  0.0000000  1.0000000 )
                  (  0.0000000 -1.0000000  0.0000000 )
                  (  1.0000000  0.0000000  0.0000000 )


      isym = 10     180 deg rotation - cart. axis [-1,0,1]       

 cryst.   s(10) = (     0          0         -1      )
                  (     0         -1          0      )
                  (    -1          0          0      )

 cart.    s(10) = (  0.0000000  0.0000000 -1.0000000 )
                  (  0.0000000 -1.0000000  0.0000000 )
                  ( -1.0000000  0.0000000  0.0000000 )


      isym = 11      90 deg rotation - cart. axis [0,1,0]        

 cryst.   s(11) = (     1          1          1      )
                  (    -1          0          0      )
                  (     0         -1          0      )

 cart.    s(11) = (  0.0000000  0.0000000  1.0000000 )
                  (  0.0000000  1.0000000  0.0000000 )
                  ( -1.0000000  0.0000000  0.0000000 )


      isym = 12      90 deg rotation - cart. axis [0,-1,0]       

 cryst.   s(12) = (     0         -1          0      )
                  (     0          0         -1      )
                  (     1          1          1      )

 cart.    s(12) = (  0.0000000  0.0000000 -1.0000000 )
                  (  0.0000000  1.0000000  0.0000000 )
                  (  1.0000000  0.0000000  0.0000000 )


      isym = 13     180 deg rotation - cart. axis [0,1,1]        

 cryst.   s(13) = (     1          1          1      )
                  (     0         -1          0      )
                  (     0          0         -1      )

 cart.    s(13) = ( -1.0000000  0.0000000  0.0000000 )
                  (  0.0000000  0.0000000  1.0000000 )
                  (  0.0000000  1.0000000  0.0000000 )


      isym = 14     180 deg rotation - cart. axis [0,1,-1]       

 cryst.   s(14) = (    -1          0          0      )
                  (     0          0         -1      )
                  (     0         -1          0      )

 cart.    s(14) = ( -1.0000000  0.0000000  0.0000000 )
                  (  0.0000000  0.0000000 -1.0000000 )
                  (  0.0000000 -1.0000000  0.0000000 )


      isym = 15      90 deg rotation - cart. axis [-1,0,0]       

 cryst.   s(15) = (     0         -1          0      )
                  (     1          1          1      )
                  (    -1          0          0      )

 cart.    s(15) = (  1.0000000  0.0000000  0.0000000 )
                  (  0.0000000  0.0000000  1.0000000 )
                  (  0.0000000 -1.0000000  0.0000000 )


      isym = 16      90 deg rotation - cart. axis [1,0,0]        

 cryst.   s(16) = (     0          0         -1      )
                  (    -1          0          0      )
                  (     1          1          1      )

 cart.    s(16) = (  1.0000000  0.0000000  0.0000000 )
                  (  0.0000000  0.0000000 -1.0000000 )
                  (  0.0000000  1.0000000  0.0000000 )


      isym = 17     120 deg rotation - cart. axis [-1,-1,-1]     

 cryst.   s(17) = (     0          0          1      )
                  (     1          0          0      )
                  (     0          1          0      )

 cart.    s(17) = (  0.0000000  1.0000000  0.0000000 )
                  (  0.0000000  0.0000000  1.0000000 )
                  (  1.0000000  0.0000000  0.0000000 )


      isym = 18     120 deg rotation - cart. axis [-1,1,1]       

 cryst.   s(18) = (     1          0          0      )
                  (     0          0          1      )
                  (    -1         -1         -1      )

 cart.    s(18) = (  0.0000000 -1.0000000  0.0000000 )
                  (  0.0000000  0.0000000  1.0000000 )
                  ( -1.0000000  0.0000000  0.0000000 )


      isym = 19     120 deg rotation - cart. axis [1,1,-1]       

 cryst.   s(19) = (     0          1          0      )
                  (    -1         -1         -1      )
                  (     0          0          1      )

 cart.    s(19) = (  0.0000000  1.0000000  0.0000000 )
                  (  0.0000000  0.0000000 -1.0000000 )
                  ( -1.0000000  0.0000000  0.0000000 )


      isym = 20     120 deg rotation - cart. axis [1,-1,1]       

 cryst.   s(20) = (    -1         -1         -1      )
                  (     0          1          0      )
                  (     1          0          0      )

 cart.    s(20) = (  0.0000000 -1.0000000  0.0000000 )
                  (  0.0000000  0.0000000 -1.0000000 )
                  (  1.0000000  0.0000000  0.0000000 )


      isym = 21     120 deg rotation - cart. axis [1,1,1]        

 cryst.   s(21) = (     0          1          0      )
                  (     0          0          1      )
                  (     1          0          0      )

 cart.    s(21) = (  0.0000000  0.0000000  1.0000000 )
                  (  1.0000000  0.0000000  0.0000000 )
                  (  0.0000000  1.0000000  0.0000000 )


      isym = 22     120 deg rotation - cart. axis [-1,1,-1]      

 cryst.   s(22) = (     0          0          1      )
                  (     0          1          0      )
                  (    -1         -1         -1      )

 cart.    s(22) = (  0.0000000  0.0000000  1.0000000 )
                  ( -1.0000000  0.0000000  0.0000000 )
                  (  0.0000000 -1.0000000  0.0000000 )


      isym = 23     120 deg rotation - cart. axis [1,-1,-1]      

 cryst.   s(23) = (     1          0          0      )
                  (    -1         -1         -1      )
                  (     0          1          0      )

 cart.    s(23) = (  0.0000000  0.0000000 -1.0000000 )
                  ( -1.0000000  0.0000000  0.0000000 )
                  (  0.0000000  1.0000000  0.0000000 )


      isym = 24     120 deg rotation - cart. axis [-1,-1,1]      

 cryst.   s(24) = (    -1         -1         -1      )
                  (     1          0          0      )
                  (     0          0          1      )

 cart.    s(24) = (  0.0000000  0.0000000 -1.0000000 )
                  (  1.0000000  0.0000000  0.0000000 )
                  (  0.0000000 -1.0000000  0.0000000 )


      isym = 25     inversion                                    

 cryst.   s(25) = (    -1          0          0      )
                  (     0         -1          0      )
                  (     0          0         -1      )

 cart.    s(25) = ( -1.0000000  0.0000000  0.0000000 )
                  (  0.0000000 -1.0000000  0.0000000 )
                  (  0.0000000  0.0000000 -1.0000000 )


      isym = 26     inv. 180 deg rotation - cart. axis [0,0,1]   

 cryst.   s(26) = (     0         -1          0      )
                  (    -1          0          0      )
                  (     1          1          1      )

 cart.    s(26) = (  1.0000000  0.0000000  0.0000000 )
                  (  0.0000000  1.0000000  0.0000000 )
                  (  0.0000000  0.0000000 -1.0000000 )


      isym = 27     inv. 180 deg rotation - cart. axis [0,1,0]   

 cryst.   s(27) = (     0          0         -1      )
                  (     1          1          1      )
                  (    -1          0          0      )

 cart.    s(27) = (  1.0000000  0.0000000  0.0000000 )
                  (  0.0000000 -1.0000000  0.0000000 )
                  (  0.0000000  0.0000000  1.0000000 )


      isym = 28     inv. 180 deg rotation - cart. axis [1,0,0]   

 cryst.   s(28) = (     1          1          1      )
                  (     0          0         -1      )
                  (     0         -1          0      )

 cart.    s(28) = ( -1.0000000  0.0000000  0.0000000 )
                  (  0.0000000  1.0000000  0.0000000 )
                  (  0.0000000  0.0000000  1.0000000 )


      isym = 29     inv. 180 deg rotation - cart. axis [1,1,0]   

 cryst.   s(29) = (     1          0          0      )
                  (     0          1          0      )
                  (    -1         -1         -1      )

 cart.    s(29) = (  0.0000000 -1.0000000  0.0000000 )
                  ( -1.0000000  0.0000000  0.0000000 )
                  (  0.0000000  0.0000000  1.0000000 )


      isym = 30     inv. 180 deg rotation - cart. axis [1,-1,0]  

 cryst.   s(30) = (     0          1          0      )
                  (     1          0          0      )
                  (     0          0          1      )

 cart.    s(30) = (  0.0000000  1.0000000  0.0000000 )
                  (  1.0000000  0.0000000  0.0000000 )
                  (  0.0000000  0.0000000  1.0000000 )


      isym = 31     inv.  90 deg rotation - cart. axis [0,0,-1]  

 cryst.   s(31) = (    -1         -1         -1      )
                  (     0          0          1      )
                  (     1          0          0      )

 cart.    s(31) = (  0.0000000 -1.0000000  0.0000000 )
                  (  1.0000000  0.0000000  0.0000000 )
                  (  0.0000000  0.0000000 -1.0000000 )


      isym = 32     inv.  90 deg rotation - cart. axis [0,0,1]   

 cryst.   s(32) = (     0          0          1      )
                  (    -1         -1         -1      )
                  (     0          1          0      )

 cart.    s(32) = (  0.0000000  1.0000000  0.0000000 )
                  ( -1.0000000  0.0000000  0.0000000 )
                  (  0.0000000  0.0000000 -1.0000000 )


      isym = 33     inv. 180 deg rotation - cart. axis [1,0,1]   

 cryst.   s(33) = (     1          0          0      )
                  (    -1         -1         -1      )
                  (     0          0          1      )

 cart.    s(33) = (  0.0000000  0.0000000 -1.0000000 )
                  (  0.0000000  1.0000000  0.0000000 )
                  ( -1.0000000  0.0000000  0.0000000 )


      isym = 34     inv. 180 deg rotation - cart. axis [-1,0,1]  

 cryst.   s(34) = (     0          0          1      )
                  (     0          1          0      )
                  (     1          0          0      )

 cart.    s(34) = (  0.0000000  0.0000000  1.0000000 )
                  (  0.0000000  1.0000000  0.0000000 )
                  (  1.0000000  0.0000000  0.0000000 )


      isym = 35     inv.  90 deg rotation - cart. axis [0,1,0]   

 cryst.   s(35) = (    -1         -1         -1      )
                  (     1          0          0      )
                  (     0          1          0      )

 cart.    s(35) = (  0.0000000  0.0000000 -1.0000000 )
                  (  0.0000000 -1.0000000  0.0000000 )
                  (  1.0000000  0.0000000  0.0000000 )


      isym = 36     inv.  90 deg rotation - cart. axis [0,-1,0]  

 cryst.   s(36) = (     0          1          0      )
                  (     0          0          1      )
                  (    -1         -1         -1      )

 cart.    s(36) = (  0.0000000  0.0000000  1.0000000 )
                  (  0.0000000 -1.0000000  0.0000000 )
                  ( -1.0000000  0.0000000  0.0000000 )


      isym = 37     inv. 180 deg rotation - cart. axis [0,1,1]   

 cryst.   s(37) = (    -1         -1         -1      )
                  (     0          1          0      )
                  (     0          0          1      )

 cart.    s(37) = (  1.0000000  0.0000000  0.0000000 )
                  (  0.0000000  0.0000000 -1.0000000 )
                  (  0.0000000 -1.0000000  0.0000000 )


      isym = 38     inv. 180 deg rotation - cart. axis [0,1,-1]  

 cryst.   s(38) = (     1          0          0      )
                  (     0          0          1      )
                  (     0          1          0      )

 cart.    s(38) = (  1.0000000  0.0000000  0.0000000 )
                  (  0.0000000  0.0000000  1.0000000 )
                  (  0.0000000  1.0000000  0.0000000 )


      isym = 39     inv.  90 deg rotation - cart. axis [-1,0,0]  

 cryst.   s(39) = (     0          1          0      )
                  (    -1         -1         -1      )
                  (     1          0          0      )

 cart.    s(39) = ( -1.0000000  0.0000000  0.0000000 )
                  (  0.0000000  0.0000000 -1.0000000 )
                  (  0.0000000  1.0000000  0.0000000 )


      isym = 40     inv.  90 deg rotation - cart. axis [1,0,0]   

 cryst.   s(40) = (     0          0          1      )
                  (     1          0          0      )
                  (    -1         -1         -1      )

 cart.    s(40) = ( -1.0000000  0.0000000  0.0000000 )
                  (  0.0000000  0.0000000  1.0000000 )
                  (  0.0000000 -1.0000000  0.0000000 )


      isym = 41     inv. 120 deg rotation - cart. axis [-1,-1,-1]

 cryst.   s(41) = (     0          0         -1      )
                  (    -1          0          0      )
                  (     0         -1          0      )

 cart.    s(41) = (  0.0000000 -1.0000000  0.0000000 )
                  (  0.0000000  0.0000000 -1.0000000 )
                  ( -1.0000000  0.0000000  0.0000000 )


      isym = 42     inv. 120 deg rotation - cart. axis [-1,1,1]  

 cryst.   s(42) = (    -1          0          0      )
                  (     0          0         -1      )
                  (     1          1          1      )

 cart.    s(42) = (  0.0000000  1.0000000  0.0000000 )
                  (  0.0000000  0.0000000 -1.0000000 )
                  (  1.0000000  0.0000000  0.0000000 )


      isym = 43     inv. 120 deg rotation - cart. axis [1,1,-1]  

 cryst.   s(43) = (     0         -1          0      )
                  (     1          1          1      )
                  (     0          0         -1      )

 cart.    s(43) = (  0.0000000 -1.0000000  0.0000000 )
                  (  0.0000000  0.0000000  1.0000000 )
                  (  1.0000000  0.0000000  0.0000000 )


      isym = 44     inv. 120 deg rotation - cart. axis [1,-1,1]  

 cryst.   s(44) = (     1          1          1      )
                  (     0         -1          0      )
                  (    -1          0          0      )

 cart.    s(44) = (  0.0000000  1.0000000  0.0000000 )
                  (  0.0000000  0.0000000  1.0000000 )
                  ( -1.0000000  0.0000000  0.0000000 )


      isym = 45     inv. 120 deg rotation - cart. axis [1,1,1]   

 cryst.   s(45) = (     0         -1          0      )
                  (     0          0         -1      )
                  (    -1          0          0      )

 cart.    s(45) = (  0.0000000  0.0000000 -1.0000000 )
                  ( -1.0000000  0.0000000  0.0000000 )
                  (  0.0000000 -1.0000000  0.0000000 )


      isym = 46     inv. 120 deg rotation - cart. axis [-1,1,-1] 

 cryst.   s(46) = (     0          0         -1      )
                  (     0         -1          0      )
                  (     1          1          1      )

 cart.    s(46) = (  0.0000000  0.0000000 -1.0000000 )
                  (  1.0000000  0.0000000  0.0000000 )
                  (  0.0000000  1.0000000  0.0000000 )


      isym = 47     inv. 120 deg rotation - cart. axis [1,-1,-1] 

 cryst.   s(47) = (    -1          0          0      )
                  (     1          1          1      )
                  (     0         -1          0      )

 cart.    s(47) = (  0.0000000  0.0000000  1.0000000 )
                  (  1.0000000  0.0000000  0.0000000 )
                  (  0.0000000 -1.0000000  0.0000000 )


      isym = 48     inv. 120 deg rotation - cart. axis [-1,-1,1] 

 cryst.   s(48) = (     1          1          1      )
                  (    -1          0          0      )
                  (     0          0         -1      )

 cart.    s(48) = (  0.0000000  0.0000000  1.0000000 )
                  ( -1.0000000  0.0000000  0.0000000 )
                  (  0.0000000  1.0000000  0.0000000 )


   Cartesian axes

     site n.     atom                  positions (alat units)
         1           Na  tau(   1) = (   0.0000000   0.0000000   0.0000000  )

   Crystallographic axes

     site n.     atom                  positions (cryst. coord.)
         1           Na  tau(   1) = (  0.0000000  0.0000000  0.0000000  )

     number of k points=    50  gaussian smearing, width (Ry)=  0.0010
                       cart. coord. in units 2pi/alat
        k(    1) = (   0.0000000   0.0000000   0.0000000), wk =   0.0400000
        k(    2) = (   0.0000000   0.0618590   0.0000000), wk =   0.0400000
        k(    3) = (   0.0000000   0.1237179   0.0000000), wk =   0.0400000
        k(    4) = (   0.0000000   0.1855769   0.0000000), wk =   0.0400000
        k(    5) = (   0.0000000   0.2474358   0.0000000), wk =   0.0400000
        k(    6) = (   0.0000000   0.3092948   0.0000000), wk =   0.0400000
        k(    7) = (   0.0000000   0.3711537   0.0000000), wk =   0.0400000
        k(    8) = (   0.0000000   0.4330127   0.0000000), wk =   0.0400000
        k(    9) = (   0.0000000   0.4948717   0.0000000), wk =   0.0400000
        k(   10) = (   0.0000000   0.5567306   0.0000000), wk =   0.0400000
        k(   11) = (   0.0000000   0.6185896   0.0000000), wk =   0.0400000
        k(   12) = (   0.0000000   0.6804485   0.0000000), wk =   0.0400000
        k(   13) = (   0.0000000   0.7423075   0.0000000), wk =   0.0400000
        k(   14) = (   0.0000000   0.8041664   0.0000000), wk =   0.0400000
        k(   15) = (   0.0000000   0.8660254   0.0000000), wk =   0.0400000
        k(   16) = (   0.0433013   0.8227241   0.0000000), wk =   0.0400000
        k(   17) = (   0.0866025   0.7794229   0.0000000), wk =   0.0400000
        k(   18) = (   0.1299038   0.7361216   0.0000000), wk =   0.0400000
        k(   19) = (   0.1732051   0.6928203   0.0000000), wk =   0.0400000
        k(   20) = (   0.2165064   0.6495191   0.0000000), wk =   0.0400000
        k(   21) = (   0.2598076   0.6062178   0.0000000), wk =   0.0400000
        k(   22) = (   0.3031089   0.5629165   0.0000000), wk =   0.0400000
        k(   23) = (   0.3464102   0.5196152   0.0000000), wk =   0.0400000
        k(   24) = (   0.3897114   0.4763140   0.0000000), wk =   0.0400000
        k(   25) = (   0.4330127   0.4330127   0.0000000), wk =   0.0400000
        k(   26) = (   0.3936479   0.3936479   0.0000000), wk =   0.0400000
        k(   27) = (   0.3542831   0.3542831   0.0000000), wk =   0.0400000
        k(   28) = (   0.3149183   0.3149183   0.0000000), wk =   0.0400000
        k(   29) = (   0.2755535   0.2755535   0.0000000), wk =   0.0400000
        k(   30) = (   0.2361887   0.2361887   0.0000000), wk =   0.0400000
        k(   31) = (   0.1968240   0.1968240   0.0000000), wk =   0.0400000
        k(   32) = (   0.1574592   0.1574592   0.0000000), wk =   0.0400000
        k(   33) = (   0.1180944   0.1180944   0.0000000), wk =   0.0400000
        k(   34) = (   0.0787296   0.0787296   0.0000000), wk =   0.0400000
        k(   35) = (   0.0393648   0.0393648   0.0000000), wk =   0.0400000
        k(   36) = (   0.0000000   0.0000000   0.0000000), wk =   0.0400000
        k(   37) = (   0.0309295   0.0309295   0.0309295), wk =   0.0400000
        k(   38) = (   0.0618590   0.0618590   0.0618590), wk =   0.0400000
        k(   39) = (   0.0927884   0.0927884   0.0927884), wk =   0.0400000
        k(   40) = (   0.1237179   0.1237179   0.1237179), wk =   0.0400000
        k(   41) = (   0.1546474   0.1546474   0.1546474), wk =   0.0400000
        k(   42) = (   0.1855769   0.1855769   0.1855769), wk =   0.0400000
        k(   43) = (   0.2165064   0.2165064   0.2165064), wk =   0.0400000
        k(   44) = (   0.2474358   0.2474358   0.2474358), wk =   0.0400000
        k(   45) = (   0.2783653   0.2783653   0.2783653), wk =   0.0400000
        k(   46) = (   0.3092948   0.3092948   0.3092948), wk =   0.0400000
        k(   47) = (   0.3402243   0.3402243   0.3402243), wk =   0.0400000
        k(   48) = (   0.3711537   0.3711537   0.3711537), wk =   0.0400000
        k(   49) = (   0.4020832   0.4020832   0.4020832), wk =   0.0400000
        k(   50) = (   0.4330127   0.4330127   0.4330127), wk =   0.0400000

                       cryst. coord.
        k(    1) = (   0.0000000   0.0000000   0.0000000), wk =   0.0400000
        k(    2) = (   0.0357143  -0.0357143   0.0357143), wk =   0.0400000
        k(    3) = (   0.0714286  -0.0714286   0.0714286), wk =   0.0400000
        k(    4) = (   0.1071429  -0.1071429   0.1071429), wk =   0.0400000
        k(    5) = (   0.1428571  -0.1428571   0.1428571), wk =   0.0400000
        k(    6) = (   0.1785714  -0.1785714   0.1785714), wk =   0.0400000
        k(    7) = (   0.2142857  -0.2142857   0.2142857), wk =   0.0400000
        k(    8) = (   0.2500000  -0.2500000   0.2500000), wk =   0.0400000
        k(    9) = (   0.2857143  -0.2857143   0.2857143), wk =   0.0400000
        k(   10) = (   0.3214286  -0.3214286   0.3214286), wk =   0.0400000
        k(   11) = (   0.3571429  -0.3571429   0.3571429), wk =   0.0400000
        k(   12) = (   0.3928571  -0.3928571   0.3928571), wk =   0.0400000
        k(   13) = (   0.4285714  -0.4285714   0.4285714), wk =   0.0400000
        k(   14) = (   0.4642857  -0.4642857   0.4642857), wk =   0.0400000
        k(   15) = (   0.5000000  -0.5000000   0.5000000), wk =   0.0400000
        k(   16) = (   0.4500000  -0.4500000   0.5000000), wk =   0.0400000
        k(   17) = (   0.4000000  -0.4000000   0.5000000), wk =   0.0400000
        k(   18) = (   0.3500000  -0.3500000   0.5000000), wk =   0.0400000
        k(   19) = (   0.3000000  -0.3000000   0.5000000), wk =   0.0400000
        k(   20) = (   0.2500000  -0.2500000   0.5000000), wk =   0.0400000
        k(   21) = (   0.2000000  -0.2000000   0.5000000), wk =   0.0400000
        k(   22) = (   0.1500000  -0.1500000   0.5000000), wk =   0.0400000
        k(   23) = (   0.1000000  -0.1000000   0.5000000), wk =   0.0400000
        k(   24) = (   0.0500000  -0.0500000   0.5000000), wk =   0.0400000
        k(   25) = (   0.0000000   0.0000000   0.5000000), wk =   0.0400000
        k(   26) = (   0.0000000   0.0000000   0.4545455), wk =   0.0400000
        k(   27) = (   0.0000000   0.0000000   0.4090909), wk =   0.0400000
        k(   28) = (   0.0000000   0.0000000   0.3636364), wk =   0.0400000
        k(   29) = (   0.0000000   0.0000000   0.3181818), wk =   0.0400000
        k(   30) = (   0.0000000   0.0000000   0.2727273), wk =   0.0400000
        k(   31) = (   0.0000000   0.0000000   0.2272727), wk =   0.0400000
        k(   32) = (   0.0000000   0.0000000   0.1818182), wk =   0.0400000
        k(   33) = (   0.0000000   0.0000000   0.1363636), wk =   0.0400000
        k(   34) = (   0.0000000   0.0000000   0.0909091), wk =   0.0400000
        k(   35) = (   0.0000000   0.0000000   0.0454545), wk =   0.0400000
        k(   36) = (   0.0000000   0.0000000   0.0000000), wk =   0.0400000
        k(   37) = (   0.0178571   0.0178571   0.0178571), wk =   0.0400000
        k(   38) = (   0.0357143   0.0357143   0.0357143), wk =   0.0400000
        k(   39) = (   0.0535714   0.0535714   0.0535714), wk =   0.0400000
        k(   40) = (   0.0714286   0.0714286   0.0714286), wk =   0.0400000
        k(   41) = (   0.0892857   0.0892857   0.0892857), wk =   0.0400000
        k(   42) = (   0.1071429   0.1071429   0.1071429), wk =   0.0400000
        k(   43) = (   0.1250000   0.1250000   0.1250000), wk =   0.0400000
        k(   44) = (   0.1428571   0.1428571   0.1428571), wk =   0.0400000
        k(   45) = (   0.1607143   0.1607143   0.1607143), wk =   0.0400000
        k(   46) = (   0.1785714   0.1785714   0.1785714), wk =   0.0400000
        k(   47) = (   0.1964286   0.1964286   0.1964286), wk =   0.0400000
        k(   48) = (   0.2142857   0.2142857   0.2142857), wk =   0.0400000
        k(   49) = (   0.2321429   0.2321429   0.2321429), wk =   0.0400000
        k(   50) = (   0.2500000   0.2500000   0.2500000), wk =   0.0400000

     Dense  grid:    12695 G-vectors     FFT dimensions: (  32,  32,  32)

     Smooth grid:     9189 G-vectors     FFT dimensions: (  30,  30,  30)

     Estimated max dynamical RAM per process >      13.26Mb

     The potential is recalculated from file :
     ./pwscf.save/charge-density.dat

     Starting wfc are    5 randomized atomic wfcs +    4 random wfc

     Band Structure Calculation
     Davidson diagonalization with overlap

     Computing kpt #:     1
     total cpu time spent up to now is        1.1 secs

     Computing kpt #:     2
     total cpu time spent up to now is        1.8 secs

     Computing kpt #:     3
     total cpu time spent up to now is        2.4 secs

     Computing kpt #:     4
     total cpu time spent up to now is        2.9 secs

     Computing kpt #:     5
     total cpu time spent up to now is        3.3 secs

     Computing kpt #:     6
     total cpu time spent up to now is        3.7 secs

     Computing kpt #:     7
     total cpu time spent up to now is        4.1 secs

     Computing kpt #:     8
     total cpu time spent up to now is        4.4 secs

     Computing kpt #:     9
     total cpu time spent up to now is        4.8 secs

     Computing kpt #:    10
     total cpu time spent up to now is        5.2 secs

     Computing kpt #:    11
     total cpu time spent up to now is        5.5 secs

     Computing kpt #:    12
     total cpu time spent up to now is        5.9 secs

     Computing kpt #:    13
     total cpu time spent up to now is        6.3 secs

     Computing kpt #:    14
     total cpu time spent up to now is        6.8 secs

     Computing kpt #:    15
     total cpu time spent up to now is        7.2 secs

     Computing kpt #:    16
     total cpu time spent up to now is        7.6 secs

     Computing kpt #:    17
     total cpu time spent up to now is        8.0 secs

     Computing kpt #:    18
     total cpu time spent up to now is        8.5 secs

     Computing kpt #:    19
     total cpu time spent up to now is        8.9 secs

     Computing kpt #:    20
     total cpu time spent up to now is        9.3 secs

     Computing kpt #:    21
     total cpu time spent up to now is        9.8 secs

     Computing kpt #:    22
     total cpu time spent up to now is       10.3 secs

     Computing kpt #:    23
     total cpu time spent up to now is       10.8 secs

     Computing kpt #:    24
     total cpu time spent up to now is       11.2 secs

     Computing kpt #:    25
     total cpu time spent up to now is       11.6 secs

     Computing kpt #:    26
     total cpu time spent up to now is       12.0 secs

     Computing kpt #:    27
     total cpu time spent up to now is       12.5 secs

     Computing kpt #:    28
     total cpu time spent up to now is       12.9 secs

     Computing kpt #:    29
     total cpu time spent up to now is       13.4 secs

     Computing kpt #:    30
     total cpu time spent up to now is       13.9 secs

     Computing kpt #:    31
     total cpu time spent up to now is       14.5 secs

     Computing kpt #:    32
     total cpu time spent up to now is       15.0 secs

     Computing kpt #:    33
     total cpu time spent up to now is       15.7 secs

     Computing kpt #:    34
     total cpu time spent up to now is       16.3 secs

     Computing kpt #:    35
     total cpu time spent up to now is       17.2 secs

     Computing kpt #:    36
     total cpu time spent up to now is       17.8 secs

     Computing kpt #:    37
     total cpu time spent up to now is       18.5 secs

     Computing kpt #:    38
     total cpu time spent up to now is       19.0 secs

     Computing kpt #:    39
     total cpu time spent up to now is       19.6 secs

     Computing kpt #:    40
     total cpu time spent up to now is       20.2 secs

     Computing kpt #:    41
     total cpu time spent up to now is       20.7 secs

     Computing kpt #:    42
     total cpu time spent up to now is       21.2 secs

     Computing kpt #:    43
     total cpu time spent up to now is       21.7 secs

     Computing kpt #:    44
     total cpu time spent up to now is       22.3 secs

     Computing kpt #:    45
     total cpu time spent up to now is       22.8 secs

     Computing kpt #:    46
     total cpu time spent up to now is       23.3 secs

     Computing kpt #:    47
     total cpu time spent up to now is       23.9 secs

     Computing kpt #:    48
     total cpu time spent up to now is       24.5 secs

     Computing kpt #:    49
     total cpu time spent up to now is       25.0 secs

     Computing kpt #:    50
     total cpu time spent up to now is       25.5 secs

     ethr =  1.11E-09,  avg # of iterations = 21.6

     total cpu time spent up to now is       25.5 secs

     End of band structure calculation

          k = 0.0000 0.0000 0.0000 (  1157 PWs)   bands (ev):

   -51.7111 -23.6182 -23.6182 -23.6182  -1.8049  12.6712  12.6712  12.6712
    13.6335

          k = 0.0000 0.0619 0.0000 (  1137 PWs)   bands (ev):

   -51.7111 -23.6186 -23.6184 -23.6184  -1.7619  12.1652  12.1652  12.7127
    12.7636

          k = 0.0000 0.1237 0.0000 (  1133 PWs)   bands (ev):

   -51.7110 -23.6200 -23.6191 -23.6191  -1.6332  11.3254  11.3254  11.7413
    12.7813

          k = 0.0000 0.1856 0.0000 (  1140 PWs)   bands (ev):

   -51.7108 -23.6220 -23.6203 -23.6203  -1.4193  10.4925  10.4925  10.7904
    12.1400

          k = 0.0000 0.2474 0.0000 (  1124 PWs)   bands (ev):

   -51.7106 -23.6246 -23.6219 -23.6219  -1.1211   9.7178   9.7178   9.9195
    11.4708

          k = 0.0000 0.3093 0.0000 (  1136 PWs)   bands (ev):

   -51.7103 -23.6274 -23.6237 -23.6237  -0.7401   9.0134   9.0134   9.1303
    10.8058

          k = 0.0000 0.3712 0.0000 (  1132 PWs)   bands (ev):

   -51.7100 -23.6301 -23.6259 -23.6259  -0.2778   8.3832   8.3832   8.4237
    10.1672

          k = 0.0000 0.4330 0.0000 (  1136 PWs)   bands (ev):

   -51.7097 -23.6326 -23.6282 -23.6282   0.2639   7.7999   7.8281   7.8281
     9.5705

          k = 0.0000 0.4949 0.0000 (  1148 PWs)   bands (ev):

   -51.7094 -23.6347 -23.6305 -23.6305   0.8828   7.2590   7.3483   7.3483
     9.0259

          k = 0.0000 0.5567 0.0000 (  1152 PWs)   bands (ev):

   -51.7092 -23.6363 -23.6327 -23.6327   1.5759   6.8012   6.9435   6.9435
     8.5386

          k = 0.0000 0.6186 0.0000 (  1144 PWs)   bands (ev):

   -51.7089 -23.6374 -23.6347 -23.6347   2.3397   6.4266   6.6133   6.6133
     8.1062

          k = 0.0000 0.6804 0.0000 (  1144 PWs)   bands (ev):

   -51.7087 -23.6382 -23.6364 -23.6364   3.1684   6.1352   6.3571   6.3571
     7.7097

          k = 0.0000 0.7423 0.0000 (  1140 PWs)   bands (ev):

   -51.7086 -23.6386 -23.6377 -23.6377   4.0523   5.9271   6.1745   6.1745
     7.2872

          k = 0.0000 0.8042 0.0000 (  1156 PWs)   bands (ev):

   -51.7085 -23.6388 -23.6385 -23.6385   4.9698   5.8021   6.0651   6.0651
     6.7095

          k = 0.0000 0.8660 0.0000 (  1144 PWs)   bands (ev):

   -51.7085 -23.6388 -23.6388 -23.6388   5.7605   5.7605   6.0287   6.0287
     6.0287

          k = 0.0433 0.8227 0.0000 (  1154 PWs)   bands (ev):

   -51.7085 -23.6390 -23.6385 -23.6383   5.1539   5.4123   6.0644   6.2797
     6.7142

          k = 0.0866 0.7794 0.0000 (  1146 PWs)   bands (ev):

   -51.7086 -23.6395 -23.6378 -23.6368   4.5091   4.9070   6.1716   6.5655
     7.5956

          k = 0.1299 0.7361 0.0000 (  1144 PWs)   bands (ev):

   -51.7087 -23.6404 -23.6366 -23.6346   3.9385   4.3957   6.3503   6.8579
     8.5601

          k = 0.1732 0.6928 0.0000 (  1140 PWs)   bands (ev):

   -51.7089 -23.6414 -23.6350 -23.6317   3.4447   3.9188   6.6008   7.1962
     9.6047

          k = 0.2165 0.6495 0.0000 (  1140 PWs)   bands (ev):

   -51.7091 -23.6426 -23.6333 -23.6285   3.0275   3.4969   6.9232   7.5987
    10.7283

          k = 0.2598 0.6062 0.0000 (  1144 PWs)   bands (ev):

   -51.7092 -23.6437 -23.6316 -23.6253   2.6869   3.1413   7.3171   8.0711
    11.9295

          k = 0.3031 0.5629 0.0000 (  1140 PWs)   bands (ev):

   -51.7094 -23.6448 -23.6301 -23.6224   2.4224   2.8592   7.7817   8.6127
    12.2762

          k = 0.3464 0.5196 0.0000 (  1134 PWs)   bands (ev):

   -51.7095 -23.6456 -23.6289 -23.6200   2.2337   2.6550   8.3126   9.2151
    11.3643

          k = 0.3897 0.4763 0.0000 (  1136 PWs)   bands (ev):

   -51.7096 -23.6461 -23.6281 -23.6186   2.1206   2.5314   8.8888   9.8452
    10.5591

          k = 0.4330 0.4330 0.0000 (  1148 PWs)   bands (ev):

   -51.7096 -23.6463 -23.6278 -23.6180   2.0829   2.4900   9.2929  10.0786
    10.2530

          k = 0.3936 0.3936 0.0000 (  1136 PWs)   bands (ev):

   -51.7097 -23.6458 -23.6277 -23.6180   1.5652   3.0672   9.3262  10.1049
    10.2830

          k = 0.3543 0.3543 0.0000 (  1138 PWs)   bands (ev):

   -51.7098 -23.6441 -23.6271 -23.6181   0.9467   3.8644   9.4258  10.1835
    10.3729

          k = 0.3149 0.3149 0.0000 (  1132 PWs)   bands (ev):

   -51.7099 -23.6415 -23.6262 -23.6181   0.3810   4.7279   9.5917  10.3146
    10.5229

          k = 0.2756 0.2756 0.0000 (  1128 PWs)   bands (ev):

   -51.7101 -23.6382 -23.6250 -23.6181  -0.1238   5.6497   9.8234  10.4980
    10.7331

          k = 0.2362 0.2362 0.0000 (  1126 PWs)   bands (ev):

   -51.7103 -23.6343 -23.6237 -23.6181  -0.5650   6.6272  10.1203  10.7332
    11.0037

          k = 0.1968 0.1968 0.0000 (  1133 PWs)   bands (ev):

   -51.7105 -23.6303 -23.6223 -23.6181  -0.9410   7.6581  10.4810  11.0191
    11.3349

          k = 0.1575 0.1575 0.0000 (  1133 PWs)   bands (ev):

   -51.7107 -23.6265 -23.6210 -23.6181  -1.2505   8.7396  10.9030  11.3530
    11.7263

          k = 0.1181 0.1181 0.0000 (  1133 PWs)   bands (ev):

   -51.7108 -23.6231 -23.6198 -23.6181  -1.4923   9.8659  11.3806  11.7283
    12.1774

          k = 0.0787 0.0787 0.0000 (  1139 PWs)   bands (ev):

   -51.7110 -23.6204 -23.6189 -23.6182  -1.6658  11.0210  11.8985  12.1272
    12.6849

          k = 0.0394 0.0394 0.0000 (  1135 PWs)   bands (ev):

   -51.7111 -23.6187 -23.6184 -23.6182  -1.7701  12.1248  12.4033  12.4952
    13.2331

          k = 0.0000 0.0000 0.0000 (  1157 PWs)   bands (ev):

   -51.7111 -23.6182 -23.6182 -23.6182  -1.8049  12.6712  12.6712  12.6712
    13.6335

          k = 0.0309 0.0309 0.0309 (  1139 PWs)   bands (ev):

   -51.7111 -23.6188 -23.6182 -23.6182  -1.7726  12.2863  12.2863  12.4387
    13.3399

          k = 0.0619 0.0619 0.0619 (  1136 PWs)   bands (ev):

   -51.7110 -23.6205 -23.6184 -23.6184  -1.6760  11.4292  11.4292  11.9106
    13.3272

          k = 0.0928 0.0928 0.0928 (  1124 PWs)   bands (ev):

   -51.7109 -23.6231 -23.6187 -23.6187  -1.5154  10.5156  10.5156  11.2667
    13.4558

          k = 0.1237 0.1237 0.1237 (  1136 PWs)   bands (ev):

   -51.7107 -23.6264 -23.6192 -23.6192  -1.2913   9.6352   9.6352  10.5802
    13.6617

          k = 0.1546 0.1546 0.1546 (  1133 PWs)   bands (ev):

   -51.7105 -23.6300 -23.6198 -23.6198  -1.0045   8.8057   8.8057   9.8849
    13.9336

          k = 0.1856 0.1856 0.1856 (  1121 PWs)   bands (ev):

   -51.7103 -23.6335 -23.6206 -23.6206  -0.6558   8.0326   8.0326   9.2003
    14.2678

          k = 0.2165 0.2165 0.2165 (  1127 PWs)   bands (ev):

   -51.7101 -23.6366 -23.6215 -23.6215  -0.2465   7.3178   7.3178   8.5394
    14.6626

          k = 0.2474 0.2474 0.2474 (  1127 PWs)   bands (ev):

   -51.7100 -23.6389 -23.6226 -23.6226   0.2221   6.6621   6.6621   7.9118
    15.1159

          k = 0.2784 0.2784 0.2784 (  1139 PWs)   bands (ev):

   -51.7098 -23.6402 -23.6239 -23.6239   0.7482   6.0658   6.0658   7.3253
    15.6245

          k = 0.3093 0.3093 0.3093 (  1136 PWs)   bands (ev):

   -51.7097 -23.6404 -23.6254 -23.6254   1.3296   5.5290   5.5290   6.7867
    16.1816

          k = 0.3402 0.3402 0.3402 (  1148 PWs)   bands (ev):

   -51.7096 -23.6394 -23.6269 -23.6269   1.9620   5.0515   5.0515   6.3037
    16.7696

          k = 0.3712 0.3712 0.3712 (  1142 PWs)   bands (ev):

   -51.7096 -23.6375 -23.6285 -23.6285   2.6376   4.6332   4.6332   5.8873
    17.3426

          k = 0.4021 0.4021 0.4021 (  1142 PWs)   bands (ev):

   -51.7096 -23.6349 -23.6302 -23.6302   3.3345   4.2738   4.2738   5.5616
    17.8200

          k = 0.4330 0.4330 0.4330 (  1136 PWs)   bands (ev):

   -51.7096 -23.6318 -23.6318 -23.6318   3.9732   3.9732   3.9732   5.4080
    18.0514

     Writing output data file pwscf.save

     init_run     :      0.59s CPU      0.43s WALL (       1 calls)
     electrons    :     50.73s CPU     24.93s WALL (       1 calls)

     Called by init_run:
     wfcinit      :      0.00s CPU      0.00s WALL (       1 calls)
     wfcinit:atom :      0.00s CPU      0.02s WALL (      50 calls)
     wfcinit:wfcr :      3.73s CPU      1.82s WALL (      50 calls)
     potinit      :      0.03s CPU      0.03s WALL (       1 calls)

     Called by electrons:
     c_bands      :     50.73s CPU     24.93s WALL (       1 calls)
     v_of_rho     :      0.02s CPU      0.02s WALL (       1 calls)
     v_h          :      0.00s CPU      0.00s WALL (       1 calls)
     v_xc         :      0.02s CPU      0.02s WALL (       1 calls)
     newd         :      0.00s CPU      0.05s WALL (       1 calls)

     Called by c_bands:
     init_us_2    :      0.05s CPU      0.05s WALL (      50 calls)
     cegterg      :     46.70s CPU     22.89s WALL (      76 calls)

     Called by sum_band:

     Called by *egterg:
     h_psi        :     44.67s CPU     21.87s WALL (    1206 calls)
     s_psi        :      0.25s CPU      0.15s WALL (    1206 calls)
     g_psi        :      0.11s CPU      0.07s WALL (    1080 calls)
     cdiaghg      :      1.94s CPU      1.27s WALL (    1130 calls)
     cegterg:over :      1.16s CPU      0.49s WALL (    1080 calls)
     cegterg:upda :      1.27s CPU      0.42s WALL (    1080 calls)
     cegterg:last :      0.66s CPU      0.22s WALL (     200 calls)

     Called by h_psi:
     h_psi:pot    :     44.62s CPU     21.81s WALL (    1206 calls)
     h_psi:calbec :      0.23s CPU      0.20s WALL (    1206 calls)
     vloc_psi     :     43.94s CPU     21.40s WALL (    1206 calls)
     add_vuspsi   :      0.39s CPU      0.17s WALL (    1206 calls)

     General routines
     calbec       :      0.16s CPU      0.18s WALL (    1206 calls)
     fft          :      0.00s CPU      0.01s WALL (      12 calls)
     ffts         :      0.02s CPU      0.00s WALL (       1 calls)
     fftw         :     42.02s CPU     20.53s WALL (   10980 calls)
     interpolate  :      0.02s CPU      0.00s WALL (       1 calls)
     davcio       :      0.00s CPU      0.00s WALL (      50 calls)

     Parallel routines
     fft_scatter  :      0.89s CPU      0.46s WALL (   10993 calls)

     PWSCF        :    51.70s CPU        25.79s WALL


   This run was terminated on:  11:24:44  25Feb2021            

=------------------------------------------------------------------------------=
   JOB DONE.
=------------------------------------------------------------------------------=
