element =  Re
struct =  hcp
nbands =  -4
path =  GMKGALHA,LM,KH
kpts =  (8,8,4)

  ___ ___ ___ _ _ _  
 |   |   |_  | | | | 
 | | | | | . | | | | 
 |__ |  _|___|_____|  1.3.1b1
 |___|_|             

User:   inukai@DESKTOP-12SE80T
Date:   Sun Feb 14 14:19:26 2021
Arch:   x86_64
Pid:    14004
Python: 3.6.9
gpaw:   /usr/lib/python3/dist-packages/gpaw
_gpaw:  /usr/lib/python3/dist-packages/_gpaw.cpython-36m-x86_64-linux-gnu.so
ase:    /home/inukai/hotcent/ase-3.19.3/ase (version 3.19.3)
numpy:  /home/inukai/.local/lib/python3.6/site-packages/numpy (version 1.19.5)
scipy:  /home/inukai/.local/lib/python3.6/site-packages/scipy (version 1.5.4)
units:  Angstrom and eV
cores:  1

Input parameters:
  kpts: [8 8 4]
  maxiter: 1500
  mixer: {backend: pulay,
          beta: 0.05,
          method: separate,
          nmaxold: 5,
          weight: 50}
  mode: {ecut: 400.0,
         name: pw}
  occupations: {name: fermi-dirac,
                width: 0.02}
  spinpol: True
  xc: PBE

System changes: positions, numbers, cell, pbc, initial_charges, initial_magmoms 

Initialize ...

Re-setup:
  name: Rhenium
  id: e7ff48666be5877df55313211be7dccb
  Z: 75
  valence: 13
  core: 62
  charge: 0.0
  file: /usr/share/gpaw-setups/Re.PBE.gz
  cutoffs: 1.32(comp), 2.40(filt), 2.76(core), lmax=2
  valence states:
                energy  radius
    6s(2.00)    -5.924   1.376
    5p(6.00)   -47.045   1.376
    6p(0.00)    -1.325   1.376
    5d(5.00)    -5.383   1.307
    *s          21.287   1.376
    *d          21.828   1.307

  Using partial waves for Re as LCAO basis

Reference energy: -907375.111031

Spin-polarized calculation.
Magnetic moment:  0.000000

Occupation numbers:
  Fermi-Dirac: width=0.0200 eV

Convergence criteria:
  Maximum total energy change: 0.0005 eV / electron
  Maximum integral of absolute density change: 0.0001 electrons
  Maximum integral of absolute eigenstate change: 4e-08 eV^2
  Maximum number of iterations: 1500

Symmetries present (total): 12

  ( 1  1  0)  ( 1  1  0)  ( 1  0  0)  ( 1  0  0)  ( 0  1  0)  ( 0  1  0)
  ( 0 -1  0)  (-1  0  0)  ( 0  1  0)  (-1 -1  0)  ( 1  0  0)  (-1 -1  0)
  ( 0  0  1)  ( 0  0 -1)  ( 0  0  1)  ( 0  0 -1)  ( 0  0 -1)  ( 0  0  1)

  ( 0 -1  0)  ( 0 -1  0)  (-1  0  0)  (-1  0  0)  (-1 -1  0)  (-1 -1  0)
  ( 1  1  0)  (-1  0  0)  ( 1  1  0)  ( 0 -1  0)  ( 1  0  0)  ( 0  1  0)
  ( 0  0 -1)  ( 0  0  1)  ( 0  0  1)  ( 0  0 -1)  ( 0  0  1)  ( 0  0 -1)
Note: your k-points are not as symmetric as your crystal!

256 k-points: 8 x 8 x 4 Monkhorst-Pack grid
72 k-points in the irreducible part of the Brillouin zone
       k-points in crystal coordinates                weights
   0:     0.06250000   -0.06250000   -0.37500000          2/256
   1:     0.06250000   -0.06250000   -0.12500000          2/256
   2:     0.06250000   -0.06250000    0.12500000          2/256
   3:     0.06250000   -0.06250000    0.37500000          2/256
   4:     0.06250000    0.06250000    0.12500000          4/256
   5:     0.06250000    0.06250000    0.37500000          4/256
   6:     0.18750000   -0.18750000   -0.37500000          2/256
   7:     0.18750000   -0.18750000   -0.12500000          2/256
   8:     0.18750000   -0.18750000    0.12500000          2/256
   9:     0.18750000   -0.18750000    0.37500000          2/256
          ...
  71:     0.43750000    0.43750000    0.37500000          4/256

Wave functions: Plane wave expansion
  Cutoff energy: 400.000 eV
  Number of coefficients (min, max): 533, 556
  Using FFTW library
  Eigensolver: None  MatrixOperator buffer_size: default value or 
                              see value of nblock in input file
Diagonalizer layout: Serial LAPACKOrthonormalizer layout: Serial LAPACK 

Davidson(niter=1, smin=None, normalize=True) 

Densities:
  Coarse grid: 12*12*21 grid
  Fine grid: 24*24*42 grid
  Total Charge: 0.000000 

Density mixing:
  Method: separate
  Backend: pulay
  Linear mixing parameter: 0.05
  Mixing with 5 old densities
  Damping of long wave oscillations: 50 

Hamiltonian:
  XC and Coulomb potentials evaluated on a 24*24*42 grid
  Using the PBE Exchange-Correlation functional
 

Memory estimate:
  Process memory now: 929.80 MiB
  Calculator: 39.15 MiB
    Density: 1.74 MiB
      Arrays: 0.81 MiB
      Localized functions: 0.47 MiB
      Mixer: 0.46 MiB
    Hamiltonian: 0.61 MiB
      Arrays: 0.60 MiB
      XC: 0.00 MiB
      Poisson: 0.00 MiB
      vbar: 0.01 MiB
    Wavefunctions: 36.80 MiB
      Arrays psit_nG: 29.32 MiB
      Eigensolver: 0.33 MiB
      Projections: 1.90 MiB
      Projectors: 4.47 MiB
      Overlap op: 0.21 MiB
      PW-descriptor: 0.56 MiB

Total number of cores used: 1

Number of atoms: 2
Number of atomic orbitals: 24
Number of bands in calculation: 24
Bands to converge: occupied states only
Number of valence electrons: 26

... initialized

Initializing position-dependent things.

Density initialized from atomic densities
Creating initial wave functions:
  24 bands from LCAO basis set

                    
                    
                    
                    
        Re          
                    
                    
          Re        
                    
                    
                    
                    

Positions:
   0 Re     0.000000    1.601840    3.359946
   1 Re     1.387234    0.800920    1.119982

Unit cell:
           periodic     x           y           z      points  spacing
  1. axis:    yes    2.774469    0.000000    0.000000    12     0.2002
  2. axis:    yes   -1.387234    2.402761    0.000000    12     0.2002
  3. axis:    yes    0.000000    0.000000    4.479928    21     0.2133

  Lengths:   2.774469   2.774469   4.479928
  Angles:   90.000000  90.000000 120.000000

Effective grid spacing dv^(1/3) = 0.2145

                     log10-error:    total        iterations:
           time      wfs    density  energy       fermi  poisson  magmom
iter:   1  14:19:40  +2.11   +inf   -23.500937    4               -0.0000
iter:   2  14:19:45  +0.15   +inf   -23.669846    4               -0.0000
iter:   3  14:19:51  -0.80   +inf   -23.694639    3               +0.0000
iter:   4  14:19:58  -1.18  -1.32   -23.613770    4               +0.0000
iter:   5  14:20:04  -0.01  -1.35   -23.228308    30              -0.0000
iter:   6  14:20:11  -1.49  -1.98   -23.271186    29              +0.0000
iter:   7  14:20:18  -1.86  -2.01   -23.270710    2               +0.0000
iter:   8  14:20:24  -2.82  -2.03   -23.266627    3               +0.0000
iter:   9  14:20:31  -1.19  -2.03   -23.253106    5               -0.0000
iter:  10  14:20:37  -2.10  -2.46   -23.258127    4               -0.0000
iter:  11  14:20:44  -2.88  -2.60   -23.258370    3               -0.0000
iter:  12  14:20:50  -3.24  -2.57   -23.258982    3               -0.0000
iter:  13  14:20:57  -2.42  -2.60   -23.258996    4               -0.0000
iter:  14  14:21:03  -3.60  -2.59   -23.259104    3               -0.0000
iter:  15  14:21:10  -3.53  -2.57   -23.259714    3               -0.0000
iter:  16  14:21:16  -2.71  -2.64   -23.249284    4               +0.0000
iter:  17  14:21:23  -2.75  -2.34   -23.256645    4               -0.0000
iter:  18  14:21:29  -2.47  -2.53   -23.257716    4               +0.0000
iter:  19  14:21:36  -2.84  -2.44   -23.260812    4               -0.0000
iter:  20  14:21:42  -2.34  -2.72   -23.259015    4               -0.0000
iter:  21  14:21:49  -1.94  -2.33   -23.259766    7               +0.0000
iter:  22  14:21:55  -3.46  -3.14   -23.259784    2               -0.0000
iter:  23  14:22:02  -3.76  -3.18   -23.259506    3               -0.0000
iter:  24  14:22:08  -3.99  -3.24   -23.259533    3               -0.0000
iter:  25  14:22:15  -5.03  -3.69   -23.259541    3               +0.0000
iter:  26  14:22:21  -5.17  -4.02   -23.259545    2               +0.0000
iter:  27  14:22:29  -5.96  -4.34   -23.259545    2               +0.0000
iter:  28  14:22:36  -6.01  -4.29   -23.259545    2               +0.0000
iter:  29  14:22:44  -7.10  -4.63   -23.259545    2               +0.0000
iter:  30  14:22:51  -7.45  -4.69   -23.259545    2               -0.0000

Converged after 30 iterations.

Dipole moment: (0.000000, -0.000000, -0.000000) |e|*Ang

Total magnetic moment: -0.000000
Local magnetic moments:
   0 Re -0.000000
   1 Re -0.000000

Energy contributions relative to reference atoms: (reference = -907375.111031)

Kinetic:         +6.075144
Potential:       -9.682104
External:        +0.000000
XC:             -19.697245
Entropy (-ST):   -0.001246
Local:           +0.045283
--------------------------
Free energy:    -23.260168
Extrapolated:   -23.259545

Spin contamination: 0.000000 electrons
Fermi level: 14.03764

Warning: Showing only first 2 kpts
                      Up                     Down
 Kpt  Band  Eigenvalues  Occupancy  Eigenvalues  Occupancy
  0    11     12.42047    0.00781     12.42047    0.00781
  0    12     12.78399    0.00781     12.78399    0.00781
  0    13     12.81430    0.00781     12.81430    0.00781
  0    14     15.81785    0.00000     15.81785    0.00000

  1    11     13.00569    0.00781     13.00569    0.00781
  1    12     13.37796    0.00781     13.37796    0.00781
  1    13     13.85815    0.00781     13.85815    0.00781
  1    14     14.42473    0.00000     14.42473    0.00000


Input parameters:
  convergence: {bands: all}
  eigensolver: {name: cg,
                niter: 5}
  fixdensity: True
  kpts: {npoints: 50,
         path: GMKGALHA,LM,KH}
  nbands: -4
  symmetry: off

Initialize ...

Re-setup:
  name: Rhenium
  id: e7ff48666be5877df55313211be7dccb
  Z: 75
  valence: 13
  core: 62
  charge: 0.0
  file: /usr/share/gpaw-setups/Re.PBE.gz
  cutoffs: 1.32(comp), 2.40(filt), 2.76(core), lmax=2
  valence states:
                energy  radius
    6s(2.00)    -5.924   1.376
    5p(6.00)   -47.045   1.376
    6p(0.00)    -1.325   1.376
    5d(5.00)    -5.383   1.307
    *s          21.287   1.376
    *d          21.828   1.307

  Using partial waves for Re as LCAO basis

Reference energy: -907375.111031

Spin-polarized calculation.
Magnetic moment:  0.000000

Occupation numbers:
  Fixed Fermi level
  Fermi-Dirac: width=0.0200 eV

Convergence criteria:
  Maximum total energy change: 0.0005 eV / electron
  Maximum integral of absolute density change: 0.0001 electrons
  Maximum integral of absolute eigenstate change: 4e-08 eV^2
  Maximum number of iterations: 1500

Symmetries present (total): 1

  ( 1  0  0)
  ( 0  1  0)
  ( 0  0  1)

50 k-points
50 k-points in the irreducible part of the Brillouin zone
       k-points in crystal coordinates                weights
   0:     0.00000000    0.00000000    0.00000000          1/50
   1:     0.08333333    0.00000000    0.00000000          1/50
   2:     0.16666667    0.00000000    0.00000000          1/50
   3:     0.25000000    0.00000000    0.00000000          1/50
   4:     0.33333333    0.00000000    0.00000000          1/50
   5:     0.41666667    0.00000000    0.00000000          1/50
   6:     0.50000000    0.00000000    0.00000000          1/50
   7:     0.44444444    0.11111111    0.00000000          1/50
   8:     0.38888889    0.22222222    0.00000000          1/50
   9:     0.33333333    0.33333333    0.00000000          1/50
          ...
  49:     0.33333333    0.33333333    0.50000000          1/50

Wave functions: Plane wave expansion
  Cutoff energy: 400.000 eV
  Number of coefficients (min, max): 532, 560
  Using FFTW library
  Eigensolver: None  MatrixOperator buffer_size: default value or 
                              see value of nblock in input file
Diagonalizer layout: Serial LAPACKOrthonormalizer layout: Serial LAPACK 

CG(niter=5, rtol=3.0e-01) 

No density mixing

Memory estimate:
  Process memory now: 1059.29 MiB
  Calculator: 21.69 MiB
    Density: 1.74 MiB
      Arrays: 0.81 MiB
      Localized functions: 0.47 MiB
      Mixer: 0.46 MiB
    Hamiltonian: 0.61 MiB
      Arrays: 0.60 MiB
      XC: 0.00 MiB
      Poisson: 0.00 MiB
      vbar: 0.01 MiB
    Wavefunctions: 19.34 MiB
      Arrays psit_nG: 14.53 MiB
      Eigensolver: 0.19 MiB
      Projections: 0.93 MiB
      Projectors: 3.11 MiB
      Overlap op: 0.15 MiB
      PW-descriptor: 0.43 MiB

Total number of cores used: 1

Number of atoms: 2
Number of atomic orbitals: 24
Number of bands in calculation: 17
Bands to converge: all
Number of valence electrons: 26

... initialized

Initializing position-dependent things.

Creating initial wave functions:
  17 bands from LCAO basis set

                    
                    
                    
                    
        Re          
                    
                    
          Re        
                    
                    
                    
                    

Positions:
   0 Re     0.000000    1.601840    3.359946
   1 Re     1.387234    0.800920    1.119982

Unit cell:
           periodic     x           y           z      points  spacing
  1. axis:    yes    2.774469    0.000000    0.000000    12     0.2002
  2. axis:    yes   -1.387234    2.402761    0.000000    12     0.2002
  3. axis:    yes    0.000000    0.000000    4.479928    21     0.2133

  Lengths:   2.774469   2.774469   4.479928
  Angles:   90.000000  90.000000 120.000000

Effective grid spacing dv^(1/3) = 0.2145

                     log10-error:    total        iterations:
           time      wfs    density  energy       fermi  poisson  magmom
iter:   1  14:23:11  +0.63          -23.054019    2               -0.0000
iter:   2  14:23:25  -0.25          -23.099629    3               -0.0000
iter:   3  14:23:42  -1.31          -23.117852    3               -0.0000
iter:   4  14:23:59  -2.21          -23.118945    3               -0.0000
iter:   5  14:24:15  -3.11          -23.119032    3               -0.0000
iter:   6  14:24:33  -3.90          -23.119046    3               -0.0000
iter:   7  14:24:50  -4.55          -23.119048    3               -0.0000
iter:   8  14:25:05  -5.43          -23.119049    3               -0.0000
iter:   9  14:25:13  -6.09          -23.119049    3               -0.0000
iter:  10  14:25:18  -7.03          -23.119049    3               -0.0000
iter:  11  14:25:21  -7.74          -23.119049    3               -0.0000

Converged after 11 iterations.

Dipole moment: (0.000000, -0.000000, -0.000000) |e|*Ang

Total magnetic moment: -0.000000
Local magnetic moments:
   0 Re -0.000000
   1 Re -0.000000

Energy contributions relative to reference atoms: (reference = -907375.111031)

Kinetic:         +6.216761
Potential:       -9.682103
External:        +0.000000
XC:             -19.697240
Entropy (-ST):   -0.003497
Local:           +0.045281
--------------------------
Free energy:    -23.120797
Extrapolated:   -23.119049

Spin contamination: 0.000000 electrons
Fixed Fermi level: 14.03764

Warning: Showing only first 2 kpts
                      Up                     Down
 Kpt  Band  Eigenvalues  Occupancy  Eigenvalues  Occupancy
  0    11     13.36532    0.02000     13.36532    0.02000
  0    12     13.36761    0.02000     13.36761    0.02000
  0    13     14.26728    0.00000     14.26728    0.00000
  0    14     14.26784    0.00000     14.26784    0.00000

  1    11     13.18947    0.02000     13.18947    0.02000
  1    12     13.58619    0.02000     13.58619    0.02000
  1    13     13.60517    0.02000     13.60517    0.02000
  1    14     14.05802    0.00432     14.05802    0.00432


Timing:                              incl.     excl.
-----------------------------------------------------------
Hamiltonian:                         1.168     0.001   0.0% |
 Atomic:                             0.949     0.003   0.0% |
  XC Correction:                     0.946     0.946   0.3% |
 Calculate atomic Hamiltonians:      0.019     0.019   0.0% |
 Communicate:                        0.000     0.000   0.0% |
 Initialize Hamiltonian:             0.000     0.000   0.0% |
 Poisson:                            0.001     0.001   0.0% |
 XC 3D grid:                         0.198     0.198   0.1% |
LCAO initialization:                11.551     0.172   0.0% |
 LCAO eigensolver:                   3.777     0.026   0.0% |
  Calculate projections:             0.018     0.018   0.0% |
  DenseAtomicCorrection:             0.072     0.072   0.0% |
  Distribute overlap matrix:         0.012     0.012   0.0% |
  Orbital Layouts:                   0.388     0.388   0.1% |
  Potential matrix:                  1.480     1.480   0.4% |
  Sum over cells:                    1.780     1.780   0.5% |
 LCAO to grid:                       5.879     5.879   1.6% ||
 Set positions (LCAO WFS):           1.723     0.003   0.0% |
  Basic WFS set positions:           0.001     0.001   0.0% |
  Basis functions set positions:     0.000     0.000   0.0% |
  TCI: Calculate S, T, P:            1.718     1.718   0.5% |
PWDescriptor:                        0.035     0.035   0.0% |
Redistribute:                        0.000     0.000   0.0% |
SCF-cycle:                         339.718     5.279   1.5% ||
 CG:                               131.549   119.362  33.5% |------------|
  CG: orthonormalize:               12.188     6.639   1.9% ||
   CG: overlap:                      3.302     3.302   0.9% |
   CG: overlap2:                     2.247     2.247   0.6% |
 Davidson:                         120.570    55.011  15.4% |-----|
  calc. matrices:                   39.106    39.106  11.0% |---|
  diagonalize:                      23.772    23.772   6.7% |--|
  rotate_psi:                        2.682     2.682   0.8% |
 Density:                           13.449     0.001   0.0% |
  Atomic density matrices:           0.184     0.184   0.1% |
  Mix:                               0.385     0.385   0.1% |
  Multipole moments:                 0.004     0.004   0.0% |
  Pseudo density:                   12.875    12.736   3.6% ||
   Symmetrize density:               0.139     0.139   0.0% |
 Hamiltonian:                       15.508     0.020   0.0% |
  Atomic:                           13.155     0.037   0.0% |
   XC Correction:                   13.118    13.118   3.7% ||
  Calculate atomic Hamiltonians:     0.222     0.222   0.1% |
  Communicate:                       0.000     0.000   0.0% |
  Poisson:                           0.008     0.008   0.0% |
  XC 3D grid:                        2.102     2.102   0.6% |
 Orthonormalize:                     0.584     0.022   0.0% |
  Band Layouts:                      0.029     0.006   0.0% |
   Inverse Cholesky:                 0.023     0.023   0.0% |
  calc_s_matrix:                     0.075     0.075   0.0% |
  projections:                       0.395     0.395   0.1% |
  rotate_psi:                        0.063     0.063   0.0% |
 Residuals:                          2.170     2.170   0.6% |
 Subspace diag:                     50.609     0.779   0.2% |
  Band Layouts:                      5.992     0.235   0.1% |
   Diagonalize:                      5.591     5.591   1.6% ||
   Distribute results:               0.166     0.166   0.0% |
  calc_h_matrix:                    41.352    41.352  11.6% |----|
  rotate_psi:                        2.486     2.486   0.7% |
Set symmetry:                        0.022     0.022   0.0% |
Other:                               4.055     4.055   1.1% |
-----------------------------------------------------------
Total:                                       356.549 100.0%

Date: Sun Feb 14 14:25:22 2021
element =  Re
struct =  hcp
kpts =  (8,8,4)
element =  Re
configuration =  [Xe] 5d5 6s2 6p0
valence =  ['5d', '6s', '6p']
occupations =  {'5d': 5, '6s': 2, '6p': 0}
nls =  5d
rNum =  600
lmax =  f
*******************************************
Starting confinement parameter optimization
Adjustable parameters and initial values:
  Re_5d.r0 : 5.706973
  Re_6p.r0 : 5.706973
  Re_6s.r0 : 5.706973
  Re_n.r0 : 8.560459
*******************************************

OPT_VAL: 5.706972900027524   5.706972900027524   5.706972900027524   8.560459350041286
VCONF:
  Re_5d : PowerConfinement(r0=5.706973, s=2.000000)
  Re_6p : PowerConfinement(r0=5.706973, s=2.000000)
  Re_6s : PowerConfinement(r0=5.706973, s=2.000000)
  Re_n : PowerConfinement(r0=8.560459, s=2.000000)
RESIDUAL: 0.0

OPT_VAL: 5.906972900027524   5.706972900027524   5.706972900027524   8.560459350041286
VCONF:
  Re_5d : PowerConfinement(r0=5.906973, s=2.000000)
  Re_6p : PowerConfinement(r0=5.706973, s=2.000000)
  Re_6s : PowerConfinement(r0=5.706973, s=2.000000)
  Re_n : PowerConfinement(r0=8.560459, s=2.000000)
RESIDUAL: 0.0

OPT_VAL: 5.706972900027524   5.906972900027524   5.706972900027524   8.560459350041286
VCONF:
  Re_5d : PowerConfinement(r0=5.706973, s=2.000000)
  Re_6p : PowerConfinement(r0=5.906973, s=2.000000)
  Re_6s : PowerConfinement(r0=5.706973, s=2.000000)
  Re_n : PowerConfinement(r0=8.560459, s=2.000000)
RESIDUAL: 0.0

OPT_VAL: 5.706972900027524   5.706972900027524   5.906972900027524   8.560459350041286
VCONF:
  Re_5d : PowerConfinement(r0=5.706973, s=2.000000)
  Re_6p : PowerConfinement(r0=5.706973, s=2.000000)
  Re_6s : PowerConfinement(r0=5.906973, s=2.000000)
  Re_n : PowerConfinement(r0=8.560459, s=2.000000)
RESIDUAL: 0.0

OPT_VAL: 5.706972900027524   5.706972900027524   5.706972900027524   8.760459350041286
VCONF:
  Re_5d : PowerConfinement(r0=5.706973, s=2.000000)
  Re_6p : PowerConfinement(r0=5.706973, s=2.000000)
  Re_6s : PowerConfinement(r0=5.706973, s=2.000000)
  Re_n : PowerConfinement(r0=8.760459, s=2.000000)
RESIDUAL: 0.0

OPT_VAL: 5.731972900027524   5.706972900027524   5.706972900027524   8.560459350041286
VCONF:
  Re_5d : PowerConfinement(r0=5.731973, s=2.000000)
  Re_6p : PowerConfinement(r0=5.706973, s=2.000000)
  Re_6s : PowerConfinement(r0=5.706973, s=2.000000)
  Re_n : PowerConfinement(r0=8.560459, s=2.000000)
RESIDUAL: 0.0

OPT_VAL: 5.706972900027524   5.731972900027524   5.706972900027524   8.560459350041286
VCONF:
  Re_5d : PowerConfinement(r0=5.706973, s=2.000000)
  Re_6p : PowerConfinement(r0=5.731973, s=2.000000)
  Re_6s : PowerConfinement(r0=5.706973, s=2.000000)
  Re_n : PowerConfinement(r0=8.560459, s=2.000000)
RESIDUAL: 0.0

OPT_VAL: 5.706972900027524   5.706972900027524   5.731972900027524   8.560459350041286
VCONF:
  Re_5d : PowerConfinement(r0=5.706973, s=2.000000)
  Re_6p : PowerConfinement(r0=5.706973, s=2.000000)
  Re_6s : PowerConfinement(r0=5.731973, s=2.000000)
  Re_n : PowerConfinement(r0=8.560459, s=2.000000)
RESIDUAL: 0.0

OPT_VAL: 5.706972900027524   5.706972900027524   5.706972900027524   8.585459350041287
VCONF:
  Re_5d : PowerConfinement(r0=5.706973, s=2.000000)
  Re_6p : PowerConfinement(r0=5.706973, s=2.000000)
  Re_6s : PowerConfinement(r0=5.706973, s=2.000000)
  Re_n : PowerConfinement(r0=8.585459, s=2.000000)
RESIDUAL: 0.0

OPT_VAL: 5.711972900027524   5.706972900027524   5.706972900027524   8.560459350041286
VCONF:
  Re_5d : PowerConfinement(r0=5.711973, s=2.000000)
  Re_6p : PowerConfinement(r0=5.706973, s=2.000000)
  Re_6s : PowerConfinement(r0=5.706973, s=2.000000)
  Re_n : PowerConfinement(r0=8.560459, s=2.000000)
RESIDUAL: 0.0

OPT_VAL: 5.706972900027524   5.711972900027524   5.706972900027524   8.560459350041286
VCONF:
  Re_5d : PowerConfinement(r0=5.706973, s=2.000000)
  Re_6p : PowerConfinement(r0=5.711973, s=2.000000)
  Re_6s : PowerConfinement(r0=5.706973, s=2.000000)
  Re_n : PowerConfinement(r0=8.560459, s=2.000000)
RESIDUAL: 0.0

OPT_VAL: 5.706972900027524   5.706972900027524   5.711972900027524   8.560459350041286
VCONF:
  Re_5d : PowerConfinement(r0=5.706973, s=2.000000)
  Re_6p : PowerConfinement(r0=5.706973, s=2.000000)
  Re_6s : PowerConfinement(r0=5.711973, s=2.000000)
  Re_n : PowerConfinement(r0=8.560459, s=2.000000)
RESIDUAL: 0.0

OPT_VAL: 5.706972900027524   5.706972900027524   5.706972900027524   8.565459350041287
VCONF:
  Re_5d : PowerConfinement(r0=5.706973, s=2.000000)
  Re_6p : PowerConfinement(r0=5.706973, s=2.000000)
  Re_6s : PowerConfinement(r0=5.706973, s=2.000000)
  Re_n : PowerConfinement(r0=8.565459, s=2.000000)
RESIDUAL: 0.0

*******************************************
Optimization finished after 13 iterations
Adjustable parameters and final values:
  Re_5d.r0 : 5.706973
  Re_6p.r0 : 5.706973
  Re_6s.r0 : 5.706973
  Re_n.r0 : 8.560459
*******************************************

VCONF:
  Re_5d : PowerConfinement(r0=5.706973, s=2.000000)
  Re_6p : PowerConfinement(r0=5.706973, s=2.000000)
  Re_6s : PowerConfinement(r0=5.706973, s=2.000000)
  Re_n : PowerConfinement(r0=8.560459, s=2.000000)
