
     Program PWSCF v.6.0 (svn rev. 13079) starts on 26Feb2021 at  7:22:28 

     This program is part of the open-source Quantum ESPRESSO suite
     for quantum simulation of materials; please cite
         "P. Giannozzi et al., J. Phys.:Condens. Matter 21 395502 (2009);
          URL http://www.quantum-espresso.org", 
     in publications or presentations arising from this work. More details at
     http://www.quantum-espresso.org/quote

     Parallel version (MPI), running on     1 processors
     Reading input from espresso.pwi
Warning: card &IONS ignored
Warning: card / ignored
Warning: card &CELL ignored
Warning: card / ignored

     Current dimensions of program PWSCF are:
     Max number of different atomic species (ntypx) = 10
     Max number of k-points (npk) =  40000
     Max angular momentum in pseudopotentials (lmaxx) =  3
     Message from routine input:
     WARNING: "startingwfc" set to atomic+random may spoil restart

     Atomic positions and unit cell read from directory:
     ./pwscf.save/


     IMPORTANT: XC functional enforced from input :
     Exchange-correlation      = PBE ( 1  4  3  4 0 0)
     Any further DFT definition will be discarded
     Please, verify this is what you really want


     Subspace diagonalization in iterative solution of the eigenvalue problem:
     a serial algorithm will be used


     G-vector sticks info
     --------------------
     sticks:   dense  smooth     PW     G-vecs:    dense   smooth      PW
     Sum        2185    1749    497                76693    54795    8385



     bravais-lattice index     =            0
     lattice parameter (alat)  =      11.6978  a.u.
     unit-cell volume          =    1600.6933 (a.u.)^3
     number of atoms/cell      =            8
     number of atomic types    =            1
     number of electrons       =        40.00
     number of Kohn-Sham states=           24
     kinetic-energy cutoff     =      40.0000  Ry
     charge density cutoff     =     200.0000  Ry
     Exchange-correlation      = PBE ( 1  4  3  4 0 0)

     celldm(1)=  11.697760  celldm(2)=   0.000000  celldm(3)=   0.000000
     celldm(4)=   0.000000  celldm(5)=   0.000000  celldm(6)=   0.000000

     crystal axes: (cart. coord. in units of alat)
               a(1) = (   1.000000   0.000000   0.000000 )  
               a(2) = (   0.000000   1.000000   0.000000 )  
               a(3) = (   0.000000   0.000000   1.000000 )  

     reciprocal axes: (cart. coord. in units 2 pi/alat)
               b(1) = (  1.000000  0.000000  0.000000 )  
               b(2) = (  0.000000  1.000000  0.000000 )  
               b(3) = (  0.000000  0.000000  1.000000 )  


     PseudoPot. # 1 for N  read from file:
     /home/inukai/tango/tests/1element/qe_fit_v3_N/../pseudo/n_pbe_v1.2.uspp.F.UPF
     MD5 check sum: 95339753478d7afb44899504a8723017
     Pseudo is Ultrasoft + core correction, Zval =  5.0
     Generated by new atomic code, or converted to UPF format
     Using radial grid of  729 points,  4 beta functions with: 
                l(1) =   0
                l(2) =   0
                l(3) =   1
                l(4) =   1
     Q(r) pseudized with  8 coefficients,  rinner =    0.900   0.900   0.900


     atomic species   valence    mass     pseudopotential
        N              5.00    14.00700     N ( 1.00)

     24 Sym. Ops., with inversion, found (18 have fractional translation)


                                    s                        frac. trans.

      isym =  1     identity                                     

 cryst.   s( 1) = (     1          0          0      )
                  (     0          1          0      )
                  (     0          0          1      )

 cart.    s( 1) = (  1.0000000  0.0000000  0.0000000 )
                  (  0.0000000  1.0000000  0.0000000 )
                  (  0.0000000  0.0000000  1.0000000 )


      isym =  2     180 deg rotation - cart. axis [0,0,1]        

 cryst.   s( 2) = (    -1          0          0      )    f =(  0.5000000 )
                  (     0         -1          0      )       (  0.0000000 )
                  (     0          0          1      )       (  0.5000000 )

 cart.    s( 2) = ( -1.0000000  0.0000000  0.0000000 )    f =(  0.5000000 )
                  (  0.0000000 -1.0000000  0.0000000 )       (  0.0000000 )
                  (  0.0000000  0.0000000  1.0000000 )       (  0.5000000 )


      isym =  3     180 deg rotation - cart. axis [0,1,0]        

 cryst.   s( 3) = (    -1          0          0      )    f =(  0.0000000 )
                  (     0          1          0      )       (  0.5000000 )
                  (     0          0         -1      )       (  0.5000000 )

 cart.    s( 3) = ( -1.0000000  0.0000000  0.0000000 )    f =(  0.0000000 )
                  (  0.0000000  1.0000000  0.0000000 )       (  0.5000000 )
                  (  0.0000000  0.0000000 -1.0000000 )       (  0.5000000 )


      isym =  4     180 deg rotation - cart. axis [1,0,0]        

 cryst.   s( 4) = (     1          0          0      )    f =(  0.5000000 )
                  (     0         -1          0      )       (  0.5000000 )
                  (     0          0         -1      )       (  0.0000000 )

 cart.    s( 4) = (  1.0000000  0.0000000  0.0000000 )    f =(  0.5000000 )
                  (  0.0000000 -1.0000000  0.0000000 )       (  0.5000000 )
                  (  0.0000000  0.0000000 -1.0000000 )       (  0.0000000 )


      isym =  5     120 deg rotation - cart. axis [-1,-1,-1]     

 cryst.   s( 5) = (     0          0          1      )
                  (     1          0          0      )
                  (     0          1          0      )

 cart.    s( 5) = (  0.0000000  1.0000000  0.0000000 )
                  (  0.0000000  0.0000000  1.0000000 )
                  (  1.0000000  0.0000000  0.0000000 )


      isym =  6     120 deg rotation - cart. axis [-1,1,1]       

 cryst.   s( 6) = (     0          0         -1      )    f =(  0.0000000 )
                  (    -1          0          0      )       (  0.5000000 )
                  (     0          1          0      )       (  0.5000000 )

 cart.    s( 6) = (  0.0000000 -1.0000000  0.0000000 )    f =(  0.0000000 )
                  (  0.0000000  0.0000000  1.0000000 )       (  0.5000000 )
                  ( -1.0000000  0.0000000  0.0000000 )       (  0.5000000 )


      isym =  7     120 deg rotation - cart. axis [1,1,-1]       

 cryst.   s( 7) = (     0          0         -1      )    f =(  0.5000000 )
                  (     1          0          0      )       (  0.5000000 )
                  (     0         -1          0      )       (  0.0000000 )

 cart.    s( 7) = (  0.0000000  1.0000000  0.0000000 )    f =(  0.5000000 )
                  (  0.0000000  0.0000000 -1.0000000 )       (  0.5000000 )
                  ( -1.0000000  0.0000000  0.0000000 )       (  0.0000000 )


      isym =  8     120 deg rotation - cart. axis [1,-1,1]       

 cryst.   s( 8) = (     0          0          1      )    f =(  0.5000000 )
                  (    -1          0          0      )       (  0.0000000 )
                  (     0         -1          0      )       (  0.5000000 )

 cart.    s( 8) = (  0.0000000 -1.0000000  0.0000000 )    f =(  0.5000000 )
                  (  0.0000000  0.0000000 -1.0000000 )       (  0.0000000 )
                  (  1.0000000  0.0000000  0.0000000 )       (  0.5000000 )


      isym =  9     120 deg rotation - cart. axis [1,1,1]        

 cryst.   s( 9) = (     0          1          0      )
                  (     0          0          1      )
                  (     1          0          0      )

 cart.    s( 9) = (  0.0000000  0.0000000  1.0000000 )
                  (  1.0000000  0.0000000  0.0000000 )
                  (  0.0000000  1.0000000  0.0000000 )


      isym = 10     120 deg rotation - cart. axis [-1,1,-1]      

 cryst.   s(10) = (     0         -1          0      )    f =(  0.5000000 )
                  (     0          0         -1      )       (  0.5000000 )
                  (     1          0          0      )       (  0.0000000 )

 cart.    s(10) = (  0.0000000  0.0000000  1.0000000 )    f =(  0.5000000 )
                  ( -1.0000000  0.0000000  0.0000000 )       (  0.5000000 )
                  (  0.0000000 -1.0000000  0.0000000 )       (  0.0000000 )


      isym = 11     120 deg rotation - cart. axis [1,-1,-1]      

 cryst.   s(11) = (     0         -1          0      )    f =(  0.5000000 )
                  (     0          0          1      )       (  0.0000000 )
                  (    -1          0          0      )       (  0.5000000 )

 cart.    s(11) = (  0.0000000  0.0000000 -1.0000000 )    f =(  0.5000000 )
                  ( -1.0000000  0.0000000  0.0000000 )       (  0.0000000 )
                  (  0.0000000  1.0000000  0.0000000 )       (  0.5000000 )


      isym = 12     120 deg rotation - cart. axis [-1,-1,1]      

 cryst.   s(12) = (     0          1          0      )    f =(  0.0000000 )
                  (     0          0         -1      )       (  0.5000000 )
                  (    -1          0          0      )       (  0.5000000 )

 cart.    s(12) = (  0.0000000  0.0000000 -1.0000000 )    f =(  0.0000000 )
                  (  1.0000000  0.0000000  0.0000000 )       (  0.5000000 )
                  (  0.0000000 -1.0000000  0.0000000 )       (  0.5000000 )


      isym = 13     inversion                                    

 cryst.   s(13) = (    -1          0          0      )
                  (     0         -1          0      )
                  (     0          0         -1      )

 cart.    s(13) = ( -1.0000000  0.0000000  0.0000000 )
                  (  0.0000000 -1.0000000  0.0000000 )
                  (  0.0000000  0.0000000 -1.0000000 )


      isym = 14     inv. 180 deg rotation - cart. axis [0,0,1]   

 cryst.   s(14) = (     1          0          0      )    f =(  0.5000000 )
                  (     0          1          0      )       (  0.0000000 )
                  (     0          0         -1      )       (  0.5000000 )

 cart.    s(14) = (  1.0000000  0.0000000  0.0000000 )    f =(  0.5000000 )
                  (  0.0000000  1.0000000  0.0000000 )       (  0.0000000 )
                  (  0.0000000  0.0000000 -1.0000000 )       (  0.5000000 )


      isym = 15     inv. 180 deg rotation - cart. axis [0,1,0]   

 cryst.   s(15) = (     1          0          0      )    f =(  0.0000000 )
                  (     0         -1          0      )       (  0.5000000 )
                  (     0          0          1      )       (  0.5000000 )

 cart.    s(15) = (  1.0000000  0.0000000  0.0000000 )    f =(  0.0000000 )
                  (  0.0000000 -1.0000000  0.0000000 )       (  0.5000000 )
                  (  0.0000000  0.0000000  1.0000000 )       (  0.5000000 )


      isym = 16     inv. 180 deg rotation - cart. axis [1,0,0]   

 cryst.   s(16) = (    -1          0          0      )    f =(  0.5000000 )
                  (     0          1          0      )       (  0.5000000 )
                  (     0          0          1      )       (  0.0000000 )

 cart.    s(16) = ( -1.0000000  0.0000000  0.0000000 )    f =(  0.5000000 )
                  (  0.0000000  1.0000000  0.0000000 )       (  0.5000000 )
                  (  0.0000000  0.0000000  1.0000000 )       (  0.0000000 )


      isym = 17     inv. 120 deg rotation - cart. axis [-1,-1,-1]

 cryst.   s(17) = (     0          0         -1      )
                  (    -1          0          0      )
                  (     0         -1          0      )

 cart.    s(17) = (  0.0000000 -1.0000000  0.0000000 )
                  (  0.0000000  0.0000000 -1.0000000 )
                  ( -1.0000000  0.0000000  0.0000000 )


      isym = 18     inv. 120 deg rotation - cart. axis [-1,1,1]  

 cryst.   s(18) = (     0          0          1      )    f =(  0.0000000 )
                  (     1          0          0      )       (  0.5000000 )
                  (     0         -1          0      )       (  0.5000000 )

 cart.    s(18) = (  0.0000000  1.0000000  0.0000000 )    f =(  0.0000000 )
                  (  0.0000000  0.0000000 -1.0000000 )       (  0.5000000 )
                  (  1.0000000  0.0000000  0.0000000 )       (  0.5000000 )


      isym = 19     inv. 120 deg rotation - cart. axis [1,1,-1]  

 cryst.   s(19) = (     0          0          1      )    f =(  0.5000000 )
                  (    -1          0          0      )       (  0.5000000 )
                  (     0          1          0      )       (  0.0000000 )

 cart.    s(19) = (  0.0000000 -1.0000000  0.0000000 )    f =(  0.5000000 )
                  (  0.0000000  0.0000000  1.0000000 )       (  0.5000000 )
                  (  1.0000000  0.0000000  0.0000000 )       (  0.0000000 )


      isym = 20     inv. 120 deg rotation - cart. axis [1,-1,1]  

 cryst.   s(20) = (     0          0         -1      )    f =(  0.5000000 )
                  (     1          0          0      )       (  0.0000000 )
                  (     0          1          0      )       (  0.5000000 )

 cart.    s(20) = (  0.0000000  1.0000000  0.0000000 )    f =(  0.5000000 )
                  (  0.0000000  0.0000000  1.0000000 )       (  0.0000000 )
                  ( -1.0000000  0.0000000  0.0000000 )       (  0.5000000 )


      isym = 21     inv. 120 deg rotation - cart. axis [1,1,1]   

 cryst.   s(21) = (     0         -1          0      )
                  (     0          0         -1      )
                  (    -1          0          0      )

 cart.    s(21) = (  0.0000000  0.0000000 -1.0000000 )
                  ( -1.0000000  0.0000000  0.0000000 )
                  (  0.0000000 -1.0000000  0.0000000 )


      isym = 22     inv. 120 deg rotation - cart. axis [-1,1,-1] 

 cryst.   s(22) = (     0          1          0      )    f =(  0.5000000 )
                  (     0          0          1      )       (  0.5000000 )
                  (    -1          0          0      )       (  0.0000000 )

 cart.    s(22) = (  0.0000000  0.0000000 -1.0000000 )    f =(  0.5000000 )
                  (  1.0000000  0.0000000  0.0000000 )       (  0.5000000 )
                  (  0.0000000  1.0000000  0.0000000 )       (  0.0000000 )


      isym = 23     inv. 120 deg rotation - cart. axis [1,-1,-1] 

 cryst.   s(23) = (     0          1          0      )    f =(  0.5000000 )
                  (     0          0         -1      )       (  0.0000000 )
                  (     1          0          0      )       (  0.5000000 )

 cart.    s(23) = (  0.0000000  0.0000000  1.0000000 )    f =(  0.5000000 )
                  (  1.0000000  0.0000000  0.0000000 )       (  0.0000000 )
                  (  0.0000000 -1.0000000  0.0000000 )       (  0.5000000 )


      isym = 24     inv. 120 deg rotation - cart. axis [-1,-1,1] 

 cryst.   s(24) = (     0         -1          0      )    f =(  0.0000000 )
                  (     0          0          1      )       (  0.5000000 )
                  (     1          0          0      )       (  0.5000000 )

 cart.    s(24) = (  0.0000000  0.0000000  1.0000000 )    f =(  0.0000000 )
                  ( -1.0000000  0.0000000  0.0000000 )       (  0.5000000 )
                  (  0.0000000  1.0000000  0.0000000 )       (  0.5000000 )


   Cartesian axes

     site n.     atom                  positions (alat units)
         1           N   tau(   1) = (   0.5518900   0.5518900   0.5518900  )
         2           N   tau(   2) = (   0.9481100   0.4481100   0.0518900  )
         3           N   tau(   3) = (   0.4481100   0.0518900   0.9481100  )
         4           N   tau(   4) = (   0.0518900   0.9481100   0.4481100  )
         5           N   tau(   5) = (   0.4481100   0.4481100   0.4481100  )
         6           N   tau(   6) = (   0.0518900   0.5518900   0.9481100  )
         7           N   tau(   7) = (   0.5518900   0.9481100   0.0518900  )
         8           N   tau(   8) = (   0.9481100   0.0518900   0.5518900  )

   Crystallographic axes

     site n.     atom                  positions (cryst. coord.)
         1           N   tau(   1) = (  0.5518900  0.5518900  0.5518900  )
         2           N   tau(   2) = (  0.9481100  0.4481100  0.0518900  )
         3           N   tau(   3) = (  0.4481100  0.0518900  0.9481100  )
         4           N   tau(   4) = (  0.0518900  0.9481100  0.4481100  )
         5           N   tau(   5) = (  0.4481100  0.4481100  0.4481100  )
         6           N   tau(   6) = (  0.0518900  0.5518900  0.9481100  )
         7           N   tau(   7) = (  0.5518900  0.9481100  0.0518900  )
         8           N   tau(   8) = (  0.9481100  0.0518900  0.5518900  )

     number of k points=    50  gaussian smearing, width (Ry)=  0.0010
                       cart. coord. in units 2pi/alat
        k(    1) = (   0.0000000   0.0000000   0.0000000), wk =   0.0400000
        k(    2) = (   0.0000000   0.0833333   0.0000000), wk =   0.0400000
        k(    3) = (   0.0000000   0.1666667   0.0000000), wk =   0.0400000
        k(    4) = (   0.0000000   0.2500000   0.0000000), wk =   0.0400000
        k(    5) = (   0.0000000   0.3333333   0.0000000), wk =   0.0400000
        k(    6) = (   0.0000000   0.4166667   0.0000000), wk =   0.0400000
        k(    7) = (   0.0000000   0.5000000   0.0000000), wk =   0.0400000
        k(    8) = (   0.0833333   0.5000000   0.0000000), wk =   0.0400000
        k(    9) = (   0.1666667   0.5000000   0.0000000), wk =   0.0400000
        k(   10) = (   0.2500000   0.5000000   0.0000000), wk =   0.0400000
        k(   11) = (   0.3333333   0.5000000   0.0000000), wk =   0.0400000
        k(   12) = (   0.4166667   0.5000000   0.0000000), wk =   0.0400000
        k(   13) = (   0.5000000   0.5000000   0.0000000), wk =   0.0400000
        k(   14) = (   0.4444444   0.4444444   0.0000000), wk =   0.0400000
        k(   15) = (   0.3888889   0.3888889   0.0000000), wk =   0.0400000
        k(   16) = (   0.3333333   0.3333333   0.0000000), wk =   0.0400000
        k(   17) = (   0.2777778   0.2777778   0.0000000), wk =   0.0400000
        k(   18) = (   0.2222222   0.2222222   0.0000000), wk =   0.0400000
        k(   19) = (   0.1666667   0.1666667   0.0000000), wk =   0.0400000
        k(   20) = (   0.1111111   0.1111111   0.0000000), wk =   0.0400000
        k(   21) = (   0.0555556   0.0555556   0.0000000), wk =   0.0400000
        k(   22) = (   0.0000000   0.0000000   0.0000000), wk =   0.0400000
        k(   23) = (   0.0454545   0.0454545   0.0454545), wk =   0.0400000
        k(   24) = (   0.0909091   0.0909091   0.0909091), wk =   0.0400000
        k(   25) = (   0.1363636   0.1363636   0.1363636), wk =   0.0400000
        k(   26) = (   0.1818182   0.1818182   0.1818182), wk =   0.0400000
        k(   27) = (   0.2272727   0.2272727   0.2272727), wk =   0.0400000
        k(   28) = (   0.2727273   0.2727273   0.2727273), wk =   0.0400000
        k(   29) = (   0.3181818   0.3181818   0.3181818), wk =   0.0400000
        k(   30) = (   0.3636364   0.3636364   0.3636364), wk =   0.0400000
        k(   31) = (   0.4090909   0.4090909   0.4090909), wk =   0.0400000
        k(   32) = (   0.4545455   0.4545455   0.4545455), wk =   0.0400000
        k(   33) = (   0.5000000   0.5000000   0.5000000), wk =   0.0400000
        k(   34) = (   0.4500000   0.5000000   0.4500000), wk =   0.0400000
        k(   35) = (   0.4000000   0.5000000   0.4000000), wk =   0.0400000
        k(   36) = (   0.3500000   0.5000000   0.3500000), wk =   0.0400000
        k(   37) = (   0.3000000   0.5000000   0.3000000), wk =   0.0400000
        k(   38) = (   0.2500000   0.5000000   0.2500000), wk =   0.0400000
        k(   39) = (   0.2000000   0.5000000   0.2000000), wk =   0.0400000
        k(   40) = (   0.1500000   0.5000000   0.1500000), wk =   0.0400000
        k(   41) = (   0.1000000   0.5000000   0.1000000), wk =   0.0400000
        k(   42) = (   0.0500000   0.5000000   0.0500000), wk =   0.0400000
        k(   43) = (   0.0000000   0.5000000   0.0000000), wk =   0.0400000
        k(   44) = (   0.5000000   0.5000000   0.0000000), wk =   0.0400000
        k(   45) = (   0.5000000   0.5000000   0.0833333), wk =   0.0400000
        k(   46) = (   0.5000000   0.5000000   0.1666667), wk =   0.0400000
        k(   47) = (   0.5000000   0.5000000   0.2500000), wk =   0.0400000
        k(   48) = (   0.5000000   0.5000000   0.3333333), wk =   0.0400000
        k(   49) = (   0.5000000   0.5000000   0.4166667), wk =   0.0400000
        k(   50) = (   0.5000000   0.5000000   0.5000000), wk =   0.0400000

                       cryst. coord.
        k(    1) = (   0.0000000   0.0000000   0.0000000), wk =   0.0400000
        k(    2) = (   0.0000000   0.0833333   0.0000000), wk =   0.0400000
        k(    3) = (   0.0000000   0.1666667   0.0000000), wk =   0.0400000
        k(    4) = (   0.0000000   0.2500000   0.0000000), wk =   0.0400000
        k(    5) = (   0.0000000   0.3333333   0.0000000), wk =   0.0400000
        k(    6) = (   0.0000000   0.4166667   0.0000000), wk =   0.0400000
        k(    7) = (   0.0000000   0.5000000   0.0000000), wk =   0.0400000
        k(    8) = (   0.0833333   0.5000000   0.0000000), wk =   0.0400000
        k(    9) = (   0.1666667   0.5000000   0.0000000), wk =   0.0400000
        k(   10) = (   0.2500000   0.5000000   0.0000000), wk =   0.0400000
        k(   11) = (   0.3333333   0.5000000   0.0000000), wk =   0.0400000
        k(   12) = (   0.4166667   0.5000000   0.0000000), wk =   0.0400000
        k(   13) = (   0.5000000   0.5000000   0.0000000), wk =   0.0400000
        k(   14) = (   0.4444444   0.4444444   0.0000000), wk =   0.0400000
        k(   15) = (   0.3888889   0.3888889   0.0000000), wk =   0.0400000
        k(   16) = (   0.3333333   0.3333333   0.0000000), wk =   0.0400000
        k(   17) = (   0.2777778   0.2777778   0.0000000), wk =   0.0400000
        k(   18) = (   0.2222222   0.2222222   0.0000000), wk =   0.0400000
        k(   19) = (   0.1666667   0.1666667   0.0000000), wk =   0.0400000
        k(   20) = (   0.1111111   0.1111111   0.0000000), wk =   0.0400000
        k(   21) = (   0.0555556   0.0555556   0.0000000), wk =   0.0400000
        k(   22) = (   0.0000000   0.0000000   0.0000000), wk =   0.0400000
        k(   23) = (   0.0454545   0.0454545   0.0454545), wk =   0.0400000
        k(   24) = (   0.0909091   0.0909091   0.0909091), wk =   0.0400000
        k(   25) = (   0.1363636   0.1363636   0.1363636), wk =   0.0400000
        k(   26) = (   0.1818182   0.1818182   0.1818182), wk =   0.0400000
        k(   27) = (   0.2272727   0.2272727   0.2272727), wk =   0.0400000
        k(   28) = (   0.2727273   0.2727273   0.2727273), wk =   0.0400000
        k(   29) = (   0.3181818   0.3181818   0.3181818), wk =   0.0400000
        k(   30) = (   0.3636364   0.3636364   0.3636364), wk =   0.0400000
        k(   31) = (   0.4090909   0.4090909   0.4090909), wk =   0.0400000
        k(   32) = (   0.4545455   0.4545455   0.4545455), wk =   0.0400000
        k(   33) = (   0.5000000   0.5000000   0.5000000), wk =   0.0400000
        k(   34) = (   0.4500000   0.5000000   0.4500000), wk =   0.0400000
        k(   35) = (   0.4000000   0.5000000   0.4000000), wk =   0.0400000
        k(   36) = (   0.3500000   0.5000000   0.3500000), wk =   0.0400000
        k(   37) = (   0.3000000   0.5000000   0.3000000), wk =   0.0400000
        k(   38) = (   0.2500000   0.5000000   0.2500000), wk =   0.0400000
        k(   39) = (   0.2000000   0.5000000   0.2000000), wk =   0.0400000
        k(   40) = (   0.1500000   0.5000000   0.1500000), wk =   0.0400000
        k(   41) = (   0.1000000   0.5000000   0.1000000), wk =   0.0400000
        k(   42) = (   0.0500000   0.5000000   0.0500000), wk =   0.0400000
        k(   43) = (   0.0000000   0.5000000   0.0000000), wk =   0.0400000
        k(   44) = (   0.5000000   0.5000000   0.0000000), wk =   0.0400000
        k(   45) = (   0.5000000   0.5000000   0.0833333), wk =   0.0400000
        k(   46) = (   0.5000000   0.5000000   0.1666667), wk =   0.0400000
        k(   47) = (   0.5000000   0.5000000   0.2500000), wk =   0.0400000
        k(   48) = (   0.5000000   0.5000000   0.3333333), wk =   0.0400000
        k(   49) = (   0.5000000   0.5000000   0.4166667), wk =   0.0400000
        k(   50) = (   0.5000000   0.5000000   0.5000000), wk =   0.0400000

     Dense  grid:    76693 G-vectors     FFT dimensions: (  54,  54,  54)

     Smooth grid:    54795 G-vectors     FFT dimensions: (  48,  48,  48)

     Estimated max dynamical RAM per process >     175.00Mb

     The potential is recalculated from file :
     ./pwscf.save/charge-density.dat

     Starting wfc are   32 randomized atomic wfcs

     Band Structure Calculation
     Davidson diagonalization with overlap

     Computing kpt #:     1
     total cpu time spent up to now is        4.0 secs

     Computing kpt #:     2
     c_bands:  1 eigenvalues not converged
     total cpu time spent up to now is       11.6 secs

     Computing kpt #:     3
     c_bands:  1 eigenvalues not converged
     total cpu time spent up to now is       19.0 secs

     Computing kpt #:     4
     c_bands:  1 eigenvalues not converged
     total cpu time spent up to now is       26.3 secs

     Computing kpt #:     5
     total cpu time spent up to now is       30.8 secs

     Computing kpt #:     6
     total cpu time spent up to now is       34.9 secs

     Computing kpt #:     7
     total cpu time spent up to now is       39.0 secs

     Computing kpt #:     8
     total cpu time spent up to now is       43.1 secs

     Computing kpt #:     9
     total cpu time spent up to now is       47.1 secs

     Computing kpt #:    10
     total cpu time spent up to now is       51.7 secs

     Computing kpt #:    11
     total cpu time spent up to now is       55.9 secs

     Computing kpt #:    12
     total cpu time spent up to now is       59.9 secs

     Computing kpt #:    13
     total cpu time spent up to now is       64.0 secs

     Computing kpt #:    14
     total cpu time spent up to now is       68.1 secs

     Computing kpt #:    15
     total cpu time spent up to now is       72.1 secs

     Computing kpt #:    16
     total cpu time spent up to now is       76.0 secs

     Computing kpt #:    17
     total cpu time spent up to now is       80.6 secs

     Computing kpt #:    18
     total cpu time spent up to now is       85.1 secs

     Computing kpt #:    19
     total cpu time spent up to now is       89.8 secs

     Computing kpt #:    20
     total cpu time spent up to now is       95.3 secs

     Computing kpt #:    21
     total cpu time spent up to now is      101.5 secs

     Computing kpt #:    22
     total cpu time spent up to now is      105.0 secs

     Computing kpt #:    23
     total cpu time spent up to now is      111.0 secs

     Computing kpt #:    24
     total cpu time spent up to now is      116.2 secs

     Computing kpt #:    25
     total cpu time spent up to now is      120.7 secs

     Computing kpt #:    26
     total cpu time spent up to now is      125.5 secs

     Computing kpt #:    27
     total cpu time spent up to now is      129.8 secs

     Computing kpt #:    28
     total cpu time spent up to now is      133.8 secs

     Computing kpt #:    29
     total cpu time spent up to now is      138.4 secs

     Computing kpt #:    30
     total cpu time spent up to now is      142.4 secs

     Computing kpt #:    31
     total cpu time spent up to now is      146.5 secs

     Computing kpt #:    32
     total cpu time spent up to now is      150.5 secs

     Computing kpt #:    33
     total cpu time spent up to now is      154.9 secs

     Computing kpt #:    34
     total cpu time spent up to now is      158.9 secs

     Computing kpt #:    35
     total cpu time spent up to now is      162.9 secs

     Computing kpt #:    36
     total cpu time spent up to now is      166.9 secs

     Computing kpt #:    37
     total cpu time spent up to now is      171.4 secs

     Computing kpt #:    38
     total cpu time spent up to now is      176.0 secs

     Computing kpt #:    39
     total cpu time spent up to now is      180.5 secs

     Computing kpt #:    40
     total cpu time spent up to now is      185.0 secs

     Computing kpt #:    41
     total cpu time spent up to now is      189.0 secs

     Computing kpt #:    42
     total cpu time spent up to now is      193.5 secs

     Computing kpt #:    43
     total cpu time spent up to now is      197.6 secs

     Computing kpt #:    44
     total cpu time spent up to now is      201.6 secs

     Computing kpt #:    45
     total cpu time spent up to now is      205.6 secs

     Computing kpt #:    46
     total cpu time spent up to now is      209.6 secs

     Computing kpt #:    47
     total cpu time spent up to now is      213.5 secs

     Computing kpt #:    48
     total cpu time spent up to now is      217.4 secs

     Computing kpt #:    49
     total cpu time spent up to now is      221.3 secs

     Computing kpt #:    50
     total cpu time spent up to now is      225.2 secs

     ethr =  2.50E-10,  avg # of iterations = 46.2

     total cpu time spent up to now is      225.2 secs

     End of band structure calculation

          k = 0.0000 0.0000 0.0000 (  6859 PWs)   bands (ev):

   -24.7884 -24.7692 -24.7692 -24.7692 -10.2081 -10.2081 -10.2081 -10.1444
    -8.2478  -8.2478  -8.2478  -8.1432  -8.1432  -8.0615  -8.0615  -8.0615
    -7.2206  -6.7369  -6.7369  -6.7369   0.8130   0.8130   0.8130   1.3519

          k = 0.0000 0.0833 0.0000 (  6851 PWs)   bands (ev):

   -24.7880 -24.7695 -24.7692 -24.7692 -10.2080 -10.2079 -10.2070 -10.1455
    -8.2479  -8.2465  -8.2461  -8.1454  -8.1421  -8.0676  -8.0640  -8.0632
    -7.2081  -6.7427  -6.7364  -6.7363   0.8209   0.8217   0.8265   1.3478

          k = 0.0000 0.1667 0.0000 (  6851 PWs)   bands (ev):

   -24.7871 -24.7704 -24.7692 -24.7692 -10.2077 -10.2076 -10.2038 -10.1487
    -8.2478  -8.2425  -8.2414  -8.1518  -8.1388  -8.0834  -8.0712  -8.0680
    -7.1731  -6.7599  -6.7348  -6.7347   0.8433   0.8462   0.8658   1.3352

          k = 0.0000 0.2500 0.0000 (  6836 PWs)   bands (ev):

   -24.7855 -24.7720 -24.7692 -24.7691 -10.2072 -10.2070 -10.1988 -10.1537
    -8.2469  -8.2359  -8.2351  -8.1618  -8.1334  -8.1031  -8.0823  -8.0755
    -7.1216  -6.7884  -6.7327  -6.7326   0.8765   0.8819   0.9282   1.3160

          k = 0.0000 0.3333 0.0000 (  6828 PWs)   bands (ev):

   -24.7835 -24.7739 -24.7691 -24.7691 -10.2067 -10.2065 -10.1922 -10.1603
    -8.2443  -8.2300  -8.2267  -8.1743  -8.1259  -8.1194  -8.0959  -8.0850
    -7.0606  -6.8277  -6.7305  -6.7304   0.9141   0.9208   1.0087   1.2938

          k = 0.0000 0.4167 0.0000 (  6848 PWs)   bands (ev):

   -24.7812 -24.7763 -24.7691 -24.7691 -10.2064 -10.2062 -10.1845 -10.1681
    -8.2397  -8.2295  -8.2153  -8.1882  -8.1260  -8.1168  -8.1101  -8.0956
    -6.9963  -6.8767  -6.7290  -6.7289   0.9465   0.9515   1.1011   1.2755

          k = 0.0000 0.5000 0.0000 (  6848 PWs)   bands (ev):

   -24.7787 -24.7787 -24.7691 -24.7691 -10.2062 -10.2062 -10.1763 -10.1763
    -8.2339  -8.2339  -8.2022  -8.2022  -8.1216  -8.1216  -8.1065  -8.1065
    -6.9337  -6.9337  -6.7284  -6.7284   0.9616   0.9616   1.1979   1.1979

          k = 0.0833 0.5000 0.0000 (  6844 PWs)   bands (ev):

   -24.7786 -24.7786 -24.7693 -24.7693 -10.2059 -10.2059 -10.1770 -10.1770
    -8.2350  -8.2350  -8.2034  -8.2034  -8.1196  -8.1196  -8.1061  -8.1061
    -6.9302  -6.9302  -6.7318  -6.7318   0.9703   0.9703   1.2014   1.2014

          k = 0.1667 0.5000 0.0000 (  6844 PWs)   bands (ev):

   -24.7781 -24.7781 -24.7698 -24.7698 -10.2049 -10.2049 -10.1792 -10.1792
    -8.2376  -8.2376  -8.2069  -8.2069  -8.1146  -8.1146  -8.1048  -8.1048
    -6.9197  -6.9197  -6.7418  -6.7418   0.9955   0.9955   1.2108   1.2108

          k = 0.2500 0.5000 0.0000 (  6838 PWs)   bands (ev):

   -24.7773 -24.7773 -24.7705 -24.7705 -10.2034 -10.2034 -10.1824 -10.1824
    -8.2398  -8.2398  -8.2125  -8.2125  -8.1084  -8.1084  -8.1027  -8.1027
    -6.9031  -6.9031  -6.7577  -6.7577   1.0347   1.0347   1.2228   1.2228

          k = 0.3333 0.5000 0.0000 (  6830 PWs)   bands (ev):

   -24.7763 -24.7763 -24.7715 -24.7715 -10.2011 -10.2011 -10.1863 -10.1863
    -8.2403  -8.2403  -8.2195  -8.2195  -8.1029  -8.1029  -8.1004  -8.1004
    -6.8816  -6.8816  -6.7787  -6.7787   1.0840   1.0840   1.2317   1.2317

          k = 0.4167 0.5000 0.0000 (  6832 PWs)   bands (ev):

   -24.7751 -24.7751 -24.7727 -24.7727 -10.1981 -10.1981 -10.1905 -10.1905
    -8.2382  -8.2382  -8.2269  -8.2269  -8.0993  -8.0993  -8.0985  -8.0985
    -6.8565  -6.8565  -6.8033  -6.8033   1.1385   1.1385   1.2258   1.2258

          k = 0.5000 0.5000 0.0000 (  6872 PWs)   bands (ev):

   -24.7739 -24.7739 -24.7739 -24.7739 -10.1945 -10.1945 -10.1945 -10.1945
    -8.2335  -8.2335  -8.2335  -8.2335  -8.0979  -8.0979  -8.0979  -8.0979
    -6.8298  -6.8298  -6.8298  -6.8298   1.1906   1.1906   1.1906   1.1906

          k = 0.4444 0.4444 0.0000 (  6846 PWs)   bands (ev):

   -24.7757 -24.7738 -24.7738 -24.7724 -10.1990 -10.1949 -10.1947 -10.1887
    -8.2457  -8.2380  -8.2259  -8.2188  -8.1086  -8.1061  -8.0919  -8.0905
    -6.8693  -6.8265  -6.8264  -6.7975   1.1318   1.1737   1.1804   1.2459

          k = 0.3889 0.3889 0.0000 (  6850 PWs)   bands (ev):

   -24.7778 -24.7734 -24.7734 -24.7712 -10.2023 -10.1958 -10.1955 -10.1817
    -8.2545  -8.2400  -8.2152  -8.2031  -8.1237  -8.1150  -8.0892  -8.0839
    -6.9154  -6.8170  -6.8169  -6.7725   1.0727   1.1359   1.1410   1.2649

          k = 0.3333 0.3333 0.0000 (  6814 PWs)   bands (ev):

   -24.7799 -24.7727 -24.7727 -24.7703 -10.2044 -10.1972 -10.1969 -10.1740
    -8.2593  -8.2407  -8.2028  -8.1876  -8.1399  -8.1239  -8.0877  -8.0782
    -6.9671  -6.8030  -6.8029  -6.7545   1.0151   1.0823   1.0838   1.2714

          k = 0.2778 0.2778 0.0000 (  6835 PWs)   bands (ev):

   -24.7821 -24.7720 -24.7719 -24.7697 -10.2059 -10.1992 -10.1988 -10.1662
    -8.2603  -8.2411  -8.1966  -8.1739  -8.1472  -8.1315  -8.0853  -8.0732
    -7.0227  -6.7870  -6.7868  -6.7430   0.9609   1.0190   1.0200   1.2856

          k = 0.2222 0.2222 0.0000 (  6831 PWs)   bands (ev):

   -24.7841 -24.7711 -24.7711 -24.7694 -10.2068 -10.2015 -10.2011 -10.1590
    -8.2585  -8.2421  -8.2064  -8.1626  -8.1370  -8.1341  -8.0809  -8.0691
    -7.0793  -6.7710  -6.7709  -6.7370   0.9121   0.9544   0.9565   1.3037

          k = 0.1667 0.1667 0.0000 (  6837 PWs)   bands (ev):

   -24.7859 -24.7704 -24.7704 -24.7692 -10.2074 -10.2040 -10.2036 -10.1529
    -8.2550  -8.2439  -8.2222  -8.1541  -8.1404  -8.1105  -8.0747  -8.0658
    -7.1330  -6.7569  -6.7568  -6.7350   0.8708   0.8968   0.8988   1.3221

          k = 0.1111 0.1111 0.0000 (  6853 PWs)   bands (ev):

   -24.7872 -24.7697 -24.7697 -24.7692 -10.2078 -10.2061 -10.2059 -10.1482
    -8.2514  -8.2458  -8.2358  -8.1481  -8.1421  -8.0864  -8.0682  -8.0634
    -7.1785  -6.7460  -6.7460  -6.7354   0.8394   0.8516   0.8527   1.3378

          k = 0.0556 0.0556 0.0000 (  6857 PWs)   bands (ev):

   -24.7881 -24.7693 -24.7693 -24.7692 -10.2080 -10.2076 -10.2075 -10.1453
    -8.2488  -8.2473  -8.2448  -8.1444  -8.1429  -8.0683  -8.0633  -8.0620
    -7.2095  -6.7392  -6.7392  -6.7364   0.8197   0.8229   0.8232   1.3483

          k = 0.0000 0.0000 0.0000 (  6859 PWs)   bands (ev):

   -24.7884 -24.7692 -24.7692 -24.7692 -10.2081 -10.2081 -10.2081 -10.1444
    -8.2478  -8.2478  -8.2478  -8.1432  -8.1432  -8.0615  -8.0615  -8.0615
    -7.2206  -6.7369  -6.7369  -6.7369   0.8130   0.8130   0.8130   1.3519

          k = 0.0455 0.0455 0.0455 (  6862 PWs)   bands (ev):

   -24.7881 -24.7693 -24.7693 -24.7693 -10.2078 -10.2078 -10.2075 -10.1454
    -8.2496  -8.2456  -8.2456  -8.1437  -8.1437  -8.0687  -8.0624  -8.0624
    -7.2095  -6.7385  -6.7385  -6.7380   0.8201   0.8229   0.8229   1.3492

          k = 0.0909 0.0909 0.0909 (  6838 PWs)   bands (ev):

   -24.7872 -24.7695 -24.7695 -24.7695 -10.2069 -10.2069 -10.2060 -10.1482
    -8.2544  -8.2394  -8.2394  -8.1451  -8.1451  -8.0884  -8.0647  -8.0647
    -7.1785  -6.7431  -6.7431  -6.7413   0.8409   0.8518   0.8518   1.3409

          k = 0.1364 0.1364 0.1364 (  6850 PWs)   bands (ev):

   -24.7859 -24.7700 -24.7700 -24.7700 -10.2057 -10.2057 -10.2038 -10.1530
    -8.2610  -8.2305  -8.2305  -8.1466  -8.1466  -8.1156  -8.0674  -8.0674
    -7.1335  -6.7509  -6.7509  -6.7473   0.8741   0.8972   0.8972   1.3275

          k = 0.1818 0.1818 0.1818 (  6832 PWs)   bands (ev):

   -24.7841 -24.7705 -24.7705 -24.7705 -10.2044 -10.2044 -10.2016 -10.1592
    -8.2673  -8.2220  -8.2220  -8.1461  -8.1461  -8.1452  -8.0692  -8.0692
    -7.0811  -6.7617  -6.7617  -6.7565   0.9174   0.9555   0.9555   1.3094

          k = 0.2273 0.2273 0.2273 (  6830 PWs)   bands (ev):

   -24.7822 -24.7712 -24.7712 -24.7712 -10.2032 -10.2032 -10.2000 -10.1667
    -8.2717  -8.2183  -8.2183  -8.1734  -8.1396  -8.1396  -8.0694  -8.0694
    -7.0273  -6.7753  -6.7753  -6.7690   0.9678   1.0213   1.0213   1.2880

          k = 0.2727 0.2727 0.2727 (  6836 PWs)   bands (ev):

   -24.7801 -24.7719 -24.7719 -24.7718 -10.2024 -10.2024 -10.1991 -10.1750
    -8.2726  -8.2214  -8.2214  -8.1978  -8.1256  -8.1256  -8.0679  -8.0679
    -6.9766  -6.7909  -6.7909  -6.7846   1.0215   1.0885   1.0885   1.2650

          k = 0.3182 0.3182 0.3182 (  6812 PWs)   bands (ev):

   -24.7781 -24.7725 -24.7725 -24.7725 -10.2019 -10.2019 -10.1992 -10.1832
    -8.2698  -8.2288  -8.2288  -8.2177  -8.1069  -8.1069  -8.0652  -8.0652
    -6.9322  -6.8074  -6.8074  -6.8020   1.0743   1.1491   1.1491   1.2422

          k = 0.3636 0.3636 0.3636 (  6839 PWs)   bands (ev):

   -24.7764 -24.7731 -24.7731 -24.7730 -10.2018 -10.2018 -10.1999 -10.1907
    -8.2644  -8.2373  -8.2373  -8.2327  -8.0877  -8.0877  -8.0620  -8.0620
    -6.8961  -6.8232  -6.8232  -6.8194   1.1217   1.1906   1.1906   1.2218

          k = 0.4091 0.4091 0.4091 (  6842 PWs)   bands (ev):

   -24.7750 -24.7735 -24.7735 -24.7735 -10.2019 -10.2019 -10.2009 -10.1968
    -8.2580  -8.2445  -8.2445  -8.2431  -8.0713  -8.0713  -8.0591  -8.0591
    -6.8698  -6.8364  -6.8364  -6.8345   1.1593   1.2006   1.2006   1.2058

          k = 0.4545 0.4545 0.4545 (  6818 PWs)   bands (ev):

   -24.7742 -24.7738 -24.7738 -24.7738 -10.2020 -10.2020 -10.2018 -10.2007
    -8.2530  -8.2494  -8.2494  -8.2491  -8.0602  -8.0602  -8.0571  -8.0571
    -6.8537  -6.8452  -6.8452  -6.8447   1.1836   1.1952   1.1952   1.1955

          k = 0.5000 0.5000 0.5000 (  6776 PWs)   bands (ev):

   -24.7738 -24.7738 -24.7738 -24.7738 -10.2021 -10.2021 -10.2021 -10.2021
    -8.2510  -8.2510  -8.2510  -8.2510  -8.0563  -8.0563  -8.0563  -8.0563
    -6.8483  -6.8483  -6.8483  -6.8483   1.1920   1.1920   1.1920   1.1920

          k = 0.4500 0.5000 0.4500 (  6824 PWs)   bands (ev):

   -24.7740 -24.7740 -24.7737 -24.7737 -10.2021 -10.2021 -10.2013 -10.2013
    -8.2515  -8.2515  -8.2492  -8.2492  -8.0593  -8.0593  -8.0571  -8.0571
    -6.8500  -6.8500  -6.8448  -6.8448   1.1887   1.1887   1.1959   1.1959

          k = 0.4000 0.5000 0.4000 (  6850 PWs)   bands (ev):

   -24.7743 -24.7743 -24.7734 -24.7734 -10.2021 -10.2021 -10.1992 -10.1992
    -8.2527  -8.2527  -8.2439  -8.2439  -8.0677  -8.0677  -8.0594  -8.0594
    -6.8551  -6.8551  -6.8348  -6.8348   1.1782   1.1782   1.2070   1.2070

          k = 0.3500 0.5000 0.3500 (  6848 PWs)   bands (ev):

   -24.7749 -24.7749 -24.7729 -24.7729 -10.2023 -10.2023 -10.1960 -10.1960
    -8.2540  -8.2540  -8.2354  -8.2354  -8.0803  -8.0803  -8.0630  -8.0630
    -6.8632  -6.8632  -6.8197  -6.8197   1.1588   1.1588   1.2226   1.2226

          k = 0.3000 0.5000 0.3000 (  6820 PWs)   bands (ev):

   -24.7756 -24.7756 -24.7722 -24.7722 -10.2026 -10.2026 -10.1922 -10.1922
    -8.2550  -8.2550  -8.2243  -8.2243  -8.0953  -8.0953  -8.0678  -8.0678
    -6.8740  -6.8740  -6.8017  -6.8017   1.1295   1.1295   1.2374   1.2374

          k = 0.2500 0.5000 0.2500 (  6834 PWs)   bands (ev):

   -24.7763 -24.7763 -24.7715 -24.7715 -10.2031 -10.2031 -10.1881 -10.1881
    -8.2548  -8.2548  -8.2118  -8.2118  -8.1109  -8.1109  -8.0737  -8.0737
    -6.8867  -6.8867  -6.7828  -6.7828   1.0925   1.0925   1.2383   1.2383

          k = 0.2000 0.5000 0.2000 (  6844 PWs)   bands (ev):

   -24.7771 -24.7771 -24.7708 -24.7708 -10.2038 -10.2038 -10.1842 -10.1842
    -8.2528  -8.2528  -8.2001  -8.2001  -8.1245  -8.1245  -8.0803  -8.0803
    -6.9002  -6.9002  -6.7649  -6.7649   1.0530   1.0530   1.2269   1.2269

          k = 0.1500 0.5000 0.1500 (  6840 PWs)   bands (ev):

   -24.7777 -24.7777 -24.7701 -24.7701 -10.2046 -10.2046 -10.1809 -10.1809
    -8.2488  -8.2488  -8.1928  -8.1928  -8.1326  -8.1326  -8.0874  -8.0874
    -6.9131  -6.9131  -6.7497  -6.7497   1.0163   1.0163   1.2155   1.2155

          k = 0.1000 0.5000 0.1000 (  6810 PWs)   bands (ev):

   -24.7783 -24.7783 -24.7696 -24.7696 -10.2054 -10.2054 -10.1784 -10.1784
    -8.2431  -8.2431  -8.1933  -8.1933  -8.1322  -8.1322  -8.0948  -8.0948
    -6.9240  -6.9240  -6.7380  -6.7380   0.9870   0.9870   1.2062   1.2062

          k = 0.0500 0.5000 0.0500 (  6848 PWs)   bands (ev):

   -24.7786 -24.7786 -24.7692 -24.7692 -10.2060 -10.2060 -10.1768 -10.1768
    -8.2370  -8.2370  -8.1989  -8.1989  -8.1261  -8.1261  -8.1022  -8.1022
    -6.9312  -6.9312  -6.7308  -6.7308   0.9681   0.9681   1.2001   1.2001

          k = 0.0000 0.5000 0.0000 (  6848 PWs)   bands (ev):

   -24.7787 -24.7787 -24.7691 -24.7691 -10.2062 -10.2062 -10.1763 -10.1763
    -8.2339  -8.2339  -8.2022  -8.2022  -8.1216  -8.1216  -8.1065  -8.1065
    -6.9337  -6.9337  -6.7284  -6.7284   0.9616   0.9616   1.1979   1.1979

          k = 0.5000 0.5000 0.0000 (  6872 PWs)   bands (ev):

   -24.7739 -24.7739 -24.7739 -24.7739 -10.1945 -10.1945 -10.1945 -10.1945
    -8.2335  -8.2335  -8.2335  -8.2335  -8.0979  -8.0979  -8.0979  -8.0979
    -6.8298  -6.8298  -6.8298  -6.8298   1.1906   1.1906   1.1906   1.1906

          k = 0.5000 0.5000 0.0833 (  6848 PWs)   bands (ev):

   -24.7739 -24.7739 -24.7739 -24.7739 -10.1950 -10.1950 -10.1950 -10.1950
    -8.2350  -8.2350  -8.2350  -8.2350  -8.0948  -8.0948  -8.0948  -8.0948
    -6.8310  -6.8310  -6.8310  -6.8310   1.1915   1.1915   1.1915   1.1915

          k = 0.5000 0.5000 0.1667 (  6844 PWs)   bands (ev):

   -24.7739 -24.7739 -24.7739 -24.7739 -10.1964 -10.1964 -10.1964 -10.1964
    -8.2388  -8.2388  -8.2388  -8.2388  -8.0867  -8.0867  -8.0867  -8.0867
    -6.8344  -6.8344  -6.8344  -6.8344   1.1932   1.1932   1.1932   1.1932

          k = 0.5000 0.5000 0.2500 (  6860 PWs)   bands (ev):

   -24.7739 -24.7739 -24.7739 -24.7739 -10.1983 -10.1983 -10.1983 -10.1983
    -8.2433  -8.2433  -8.2433  -8.2433  -8.0761  -8.0761  -8.0761  -8.0761
    -6.8390  -6.8390  -6.8390  -6.8390   1.1941   1.1941   1.1941   1.1941

          k = 0.5000 0.5000 0.3333 (  6864 PWs)   bands (ev):

   -24.7739 -24.7739 -24.7739 -24.7739 -10.2002 -10.2002 -10.2002 -10.2002
    -8.2474  -8.2474  -8.2474  -8.2474  -8.0661  -8.0661  -8.0661  -8.0661
    -6.8437  -6.8437  -6.8437  -6.8437   1.1936   1.1936   1.1936   1.1936

          k = 0.5000 0.5000 0.4167 (  6812 PWs)   bands (ev):

   -24.7739 -24.7739 -24.7739 -24.7739 -10.2016 -10.2016 -10.2016 -10.2016
    -8.2501  -8.2501  -8.2501  -8.2501  -8.0589  -8.0589  -8.0589  -8.0589
    -6.8471  -6.8471  -6.8471  -6.8471   1.1925   1.1925   1.1925   1.1925

          k = 0.5000 0.5000 0.5000 (  6776 PWs)   bands (ev):

   -24.7738 -24.7738 -24.7738 -24.7738 -10.2021 -10.2021 -10.2021 -10.2021
    -8.2510  -8.2510  -8.2510  -8.2510  -8.0563  -8.0563  -8.0563  -8.0563
    -6.8483  -6.8483  -6.8483  -6.8483   1.1920   1.1920   1.1920   1.1920

     Writing output data file pwscf.save

     init_run     :      0.53s CPU      0.66s WALL (       1 calls)
     electrons    :    464.00s CPU    224.43s WALL (       1 calls)

     Called by init_run:
     wfcinit      :      0.00s CPU      0.00s WALL (       1 calls)
     wfcinit:atom :      0.66s CPU      0.24s WALL (      50 calls)
     wfcinit:wfcr :     16.91s CPU      8.88s WALL (      50 calls)
     potinit      :      0.14s CPU      0.18s WALL (       1 calls)

     Called by electrons:
     c_bands      :    464.00s CPU    224.43s WALL (       1 calls)
     v_of_rho     :      0.14s CPU      0.14s WALL (       1 calls)
     v_h          :      0.00s CPU      0.01s WALL (       1 calls)
     v_xc         :      0.14s CPU      0.14s WALL (       1 calls)
     newd         :      0.09s CPU      0.12s WALL (       1 calls)

     Called by c_bands:
     init_us_2    :      0.50s CPU      0.28s WALL (      50 calls)
     cegterg      :    440.03s CPU    211.96s WALL (     136 calls)

     Called by sum_band:

     Called by *egterg:
     h_psi        :    329.72s CPU    162.15s WALL (    2498 calls)
     s_psi        :     14.66s CPU      6.04s WALL (    2498 calls)
     g_psi        :      3.02s CPU      1.52s WALL (    2312 calls)
     cdiaghg      :     25.05s CPU     12.13s WALL (    2362 calls)
     cegterg:over :     31.59s CPU     13.89s WALL (    2312 calls)
     cegterg:upda :     28.67s CPU     13.24s WALL (    2312 calls)
     cegterg:last :      8.97s CPU      2.53s WALL (     289 calls)

     Called by h_psi:
     h_psi:pot    :    327.44s CPU    160.96s WALL (    2498 calls)
     h_psi:calbec :     15.75s CPU      6.22s WALL (    2498 calls)
     vloc_psi     :    291.39s CPU    146.92s WALL (    2498 calls)
     add_vuspsi   :     20.17s CPU      7.74s WALL (    2498 calls)

     General routines
     calbec       :     15.72s CPU      6.18s WALL (    2498 calls)
     fft          :      0.06s CPU      0.07s WALL (      13 calls)
     ffts         :      0.00s CPU      0.01s WALL (       1 calls)
     fftw         :    261.45s CPU    131.55s WALL (   43398 calls)
     interpolate  :      0.00s CPU      0.01s WALL (       1 calls)
     davcio       :      0.00s CPU      0.05s WALL (      50 calls)

     Parallel routines
     fft_scatter  :     16.73s CPU      9.12s WALL (   43412 calls)

     PWSCF        :  7m45.02s CPU     3m45.55s WALL


   This run was terminated on:   7:26:14  26Feb2021            

=------------------------------------------------------------------------------=
   JOB DONE.
=------------------------------------------------------------------------------=
