
     Program PWSCF v.6.0 (svn rev. 13079) starts on 25Feb2021 at 12:31:38 

     This program is part of the open-source Quantum ESPRESSO suite
     for quantum simulation of materials; please cite
         "P. Giannozzi et al., J. Phys.:Condens. Matter 21 395502 (2009);
          URL http://www.quantum-espresso.org", 
     in publications or presentations arising from this work. More details at
     http://www.quantum-espresso.org/quote

     Parallel version (MPI), running on     1 processors
     Reading input from espresso.pwi
Warning: card &IONS ignored
Warning: card / ignored
Warning: card &CELL ignored
Warning: card / ignored

     Current dimensions of program PWSCF are:
     Max number of different atomic species (ntypx) = 10
     Max number of k-points (npk) =  40000
     Max angular momentum in pseudopotentials (lmaxx) =  3
     Message from routine input:
     WARNING: "startingwfc" set to atomic+random may spoil restart

     Atomic positions and unit cell read from directory:
     ./pwscf.save/


     IMPORTANT: XC functional enforced from input :
     Exchange-correlation      = PBE ( 1  4  3  4 0 0)
     Any further DFT definition will be discarded
     Please, verify this is what you really want


     Subspace diagonalization in iterative solution of the eigenvalue problem:
     a serial algorithm will be used


     G-vector sticks info
     --------------------
     sticks:   dense  smooth     PW     G-vecs:    dense   smooth      PW
     Sum         547     433    127                16107    11561    1925



     bravais-lattice index     =            0
     lattice parameter (alat)  =       6.2531  a.u.
     unit-cell volume          =     337.4260 (a.u.)^3
     number of atoms/cell      =            2
     number of atomic types    =            1
     number of electrons       =        22.00
     number of Kohn-Sham states=           15
     kinetic-energy cutoff     =      40.0000  Ry
     charge density cutoff     =     200.0000  Ry
     Exchange-correlation      = PBE ( 1  4  3  4 0 0)

     celldm(1)=   6.253104  celldm(2)=   0.000000  celldm(3)=   0.000000
     celldm(4)=   0.000000  celldm(5)=   0.000000  celldm(6)=   0.000000

     crystal axes: (cart. coord. in units of alat)
               a(1) = (   1.000000   0.000000   0.000000 )  
               a(2) = (  -0.500000   0.866025   0.000000 )  
               a(3) = (   0.000000   0.000000   1.593533 )  

     reciprocal axes: (cart. coord. in units 2 pi/alat)
               b(1) = (  1.000000  0.577350 -0.000000 )  
               b(2) = (  0.000000  1.154701  0.000000 )  
               b(3) = (  0.000000 -0.000000  0.627537 )  


     PseudoPot. # 1 for Sc read from file:
     /home/inukai/tango/tests/1element/qe_fit_v2_Sc/../pseudo/sc_pbe_v1.uspp.F.UPF
     MD5 check sum: db30a2753ba66ef00f23801d899b7e7f
     Pseudo is Ultrasoft + core correction, Zval = 11.0
     Generated by new atomic code, or converted to UPF format
     Using radial grid of  849 points,  6 beta functions with: 
                l(1) =   0
                l(2) =   0
                l(3) =   1
                l(4) =   1
                l(5) =   2
                l(6) =   2
     Q(r) pseudized with  6 coefficients,  rinner =    1.200   1.200   1.200
                                                       1.200   1.200

     atomic species   valence    mass     pseudopotential
        Sc            11.00    44.95591     Sc( 1.00)

     12 Sym. Ops. (no inversion) found
          (note: 12 additional sym.ops. were found but ignored
           their fractional translations are incommensurate with FFT grid)

                                    s                        frac. trans.

      isym =  1     identity                                     

 cryst.   s( 1) = (     1          0          0      )
                  (     0          1          0      )
                  (     0          0          1      )

 cart.    s( 1) = (  1.0000000  0.0000000  0.0000000 )
                  (  0.0000000  1.0000000  0.0000000 )
                  (  0.0000000  0.0000000  1.0000000 )


      isym =  2     180 deg rotation - cart. axis [0,1,0]        

 cryst.   s( 2) = (    -1          0          0      )
                  (     1          1          0      )
                  (     0          0         -1      )

 cart.    s( 2) = ( -1.0000000 -0.0000000  0.0000000 )
                  (  0.0000000  1.0000000  0.0000000 )
                  (  0.0000000  0.0000000 -1.0000000 )


      isym =  3     120 deg rotation - cryst. axis [0,0,1]       

 cryst.   s( 3) = (     0          1          0      )
                  (    -1         -1          0      )
                  (     0          0          1      )

 cart.    s( 3) = ( -0.5000000 -0.8660254  0.0000000 )
                  (  0.8660254 -0.5000000  0.0000000 )
                  (  0.0000000  0.0000000  1.0000000 )


      isym =  4     120 deg rotation - cryst. axis [0,0,-1]      

 cryst.   s( 4) = (    -1         -1          0      )
                  (     1          0          0      )
                  (     0          0          1      )

 cart.    s( 4) = ( -0.5000000  0.8660254  0.0000000 )
                  ( -0.8660254 -0.5000000  0.0000000 )
                  (  0.0000000  0.0000000  1.0000000 )


      isym =  5     180 deg rotation - cryst. axis [1,-1,0]      

 cryst.   s( 5) = (     0         -1          0      )
                  (    -1          0          0      )
                  (     0          0         -1      )

 cart.    s( 5) = (  0.5000000 -0.8660254  0.0000000 )
                  ( -0.8660254 -0.5000000  0.0000000 )
                  (  0.0000000  0.0000000 -1.0000000 )


      isym =  6     180 deg rotation - cryst. axis [2,1,0]       

 cryst.   s( 6) = (     1          1          0      )
                  (     0         -1          0      )
                  (     0          0         -1      )

 cart.    s( 6) = (  0.5000000  0.8660254  0.0000000 )
                  (  0.8660254 -0.5000000  0.0000000 )
                  (  0.0000000  0.0000000 -1.0000000 )


      isym =  7     inv. 180 deg rotation - cart. axis [0,0,1]   

 cryst.   s( 7) = (     1          0          0      )
                  (     0          1          0      )
                  (     0          0         -1      )

 cart.    s( 7) = (  1.0000000  0.0000000  0.0000000 )
                  (  0.0000000  1.0000000  0.0000000 )
                  (  0.0000000  0.0000000 -1.0000000 )


      isym =  8     inv. 180 deg rotation - cart. axis [1,0,0]   

 cryst.   s( 8) = (    -1          0          0      )
                  (     1          1          0      )
                  (     0          0          1      )

 cart.    s( 8) = ( -1.0000000 -0.0000000  0.0000000 )
                  (  0.0000000  1.0000000  0.0000000 )
                  (  0.0000000  0.0000000  1.0000000 )


      isym =  9     inv.  60 deg rotation - cryst. axis [0,0,1]  

 cryst.   s( 9) = (    -1         -1          0      )
                  (     1          0          0      )
                  (     0          0         -1      )

 cart.    s( 9) = ( -0.5000000  0.8660254  0.0000000 )
                  ( -0.8660254 -0.5000000  0.0000000 )
                  (  0.0000000  0.0000000 -1.0000000 )


      isym = 10     inv.  60 deg rotation - cryst. axis [0,0,-1] 

 cryst.   s(10) = (     0          1          0      )
                  (    -1         -1          0      )
                  (     0          0         -1      )

 cart.    s(10) = ( -0.5000000 -0.8660254  0.0000000 )
                  (  0.8660254 -0.5000000  0.0000000 )
                  (  0.0000000  0.0000000 -1.0000000 )


      isym = 11     inv. 180 deg rotation - cryst. axis [0,1,0]  

 cryst.   s(11) = (     1          1          0      )
                  (     0         -1          0      )
                  (     0          0          1      )

 cart.    s(11) = (  0.5000000  0.8660254  0.0000000 )
                  (  0.8660254 -0.5000000  0.0000000 )
                  (  0.0000000  0.0000000  1.0000000 )


      isym = 12     inv. 180 deg rotation - cryst. axis [1,1,0]  

 cryst.   s(12) = (     0         -1          0      )
                  (    -1          0          0      )
                  (     0          0          1      )

 cart.    s(12) = (  0.5000000 -0.8660254  0.0000000 )
                  ( -0.8660254 -0.5000000  0.0000000 )
                  (  0.0000000  0.0000000  1.0000000 )


   Cartesian axes

     site n.     atom                  positions (alat units)
         1           Sc  tau(   1) = (   0.0000000   0.0000000   0.0000000  )
         2           Sc  tau(   2) = (  -0.0000000   0.5773503   0.7967664  )

   Crystallographic axes

     site n.     atom                  positions (cryst. coord.)
         1           Sc  tau(   1) = (  0.0000000  0.0000000  0.0000000  )
         2           Sc  tau(   2) = (  0.3333333  0.6666667  0.5000000  )

     number of k points=    50  gaussian smearing, width (Ry)=  0.0010
                       cart. coord. in units 2pi/alat
        k(    1) = (   0.0000000   0.0000000   0.0000000), wk =   0.0400000
        k(    2) = (   0.0357143   0.0206197   0.0000000), wk =   0.0400000
        k(    3) = (   0.0714286   0.0412393   0.0000000), wk =   0.0400000
        k(    4) = (   0.1071429   0.0618590   0.0000000), wk =   0.0400000
        k(    5) = (   0.1428571   0.0824786   0.0000000), wk =   0.0400000
        k(    6) = (   0.1785714   0.1030983   0.0000000), wk =   0.0400000
        k(    7) = (   0.2142857   0.1237179   0.0000000), wk =   0.0400000
        k(    8) = (   0.2500000   0.1443376   0.0000000), wk =   0.0400000
        k(    9) = (   0.2857143   0.1649572   0.0000000), wk =   0.0400000
        k(   10) = (   0.3214286   0.1855769   0.0000000), wk =   0.0400000
        k(   11) = (   0.3571429   0.2061965   0.0000000), wk =   0.0400000
        k(   12) = (   0.3928571   0.2268162   0.0000000), wk =   0.0400000
        k(   13) = (   0.4285714   0.2474358   0.0000000), wk =   0.0400000
        k(   14) = (   0.4642857   0.2680555   0.0000000), wk =   0.0400000
        k(   15) = (   0.5000000   0.2886751   0.0000000), wk =   0.0400000
        k(   16) = (   0.4791667   0.3247595   0.0000000), wk =   0.0400000
        k(   17) = (   0.4583333   0.3608439   0.0000000), wk =   0.0400000
        k(   18) = (   0.4375000   0.3969283   0.0000000), wk =   0.0400000
        k(   19) = (   0.4166667   0.4330127   0.0000000), wk =   0.0400000
        k(   20) = (   0.3958333   0.4690971   0.0000000), wk =   0.0400000
        k(   21) = (   0.3750000   0.5051815   0.0000000), wk =   0.0400000
        k(   22) = (   0.3541667   0.5412659   0.0000000), wk =   0.0400000
        k(   23) = (   0.3333333   0.5773503   0.0000000), wk =   0.0400000
        k(   24) = (   0.3148148   0.5452753   0.0000000), wk =   0.0400000
        k(   25) = (   0.2962963   0.5132002   0.0000000), wk =   0.0400000
        k(   26) = (   0.2777778   0.4811252   0.0000000), wk =   0.0400000
        k(   27) = (   0.2592593   0.4490502   0.0000000), wk =   0.0400000
        k(   28) = (   0.2407407   0.4169752   0.0000000), wk =   0.0400000
        k(   29) = (   0.2222222   0.3849002   0.0000000), wk =   0.0400000
        k(   30) = (   0.2037037   0.3528252   0.0000000), wk =   0.0400000
        k(   31) = (   0.1851852   0.3207501   0.0000000), wk =   0.0400000
        k(   32) = (   0.1666667   0.2886751   0.0000000), wk =   0.0400000
        k(   33) = (   0.1481481   0.2566001   0.0000000), wk =   0.0400000
        k(   34) = (   0.1296296   0.2245251   0.0000000), wk =   0.0400000
        k(   35) = (   0.1111111   0.1924501   0.0000000), wk =   0.0400000
        k(   36) = (   0.0925926   0.1603751   0.0000000), wk =   0.0400000
        k(   37) = (   0.0740741   0.1283001   0.0000000), wk =   0.0400000
        k(   38) = (   0.0555556   0.0962250   0.0000000), wk =   0.0400000
        k(   39) = (   0.0370370   0.0641500   0.0000000), wk =   0.0400000
        k(   40) = (   0.0185185   0.0320750   0.0000000), wk =   0.0400000
        k(   41) = (   0.0000000   0.0000000   0.0000000), wk =   0.0400000
        k(   42) = (   0.0000000   0.0000000   0.0348631), wk =   0.0400000
        k(   43) = (   0.0000000   0.0000000   0.0697263), wk =   0.0400000
        k(   44) = (   0.0000000   0.0000000   0.1045894), wk =   0.0400000
        k(   45) = (   0.0000000   0.0000000   0.1394526), wk =   0.0400000
        k(   46) = (   0.0000000   0.0000000   0.1743157), wk =   0.0400000
        k(   47) = (   0.0000000   0.0000000   0.2091788), wk =   0.0400000
        k(   48) = (   0.0000000   0.0000000   0.2440420), wk =   0.0400000
        k(   49) = (   0.0000000   0.0000000   0.2789051), wk =   0.0400000
        k(   50) = (   0.0000000   0.0000000   0.3137683), wk =   0.0400000

                       cryst. coord.
        k(    1) = (   0.0000000   0.0000000   0.0000000), wk =   0.0400000
        k(    2) = (   0.0357143   0.0000000   0.0000000), wk =   0.0400000
        k(    3) = (   0.0714286   0.0000000   0.0000000), wk =   0.0400000
        k(    4) = (   0.1071429   0.0000000   0.0000000), wk =   0.0400000
        k(    5) = (   0.1428571   0.0000000   0.0000000), wk =   0.0400000
        k(    6) = (   0.1785714   0.0000000   0.0000000), wk =   0.0400000
        k(    7) = (   0.2142857   0.0000000   0.0000000), wk =   0.0400000
        k(    8) = (   0.2500000   0.0000000   0.0000000), wk =   0.0400000
        k(    9) = (   0.2857143   0.0000000   0.0000000), wk =   0.0400000
        k(   10) = (   0.3214286   0.0000000   0.0000000), wk =   0.0400000
        k(   11) = (   0.3571429   0.0000000   0.0000000), wk =   0.0400000
        k(   12) = (   0.3928571   0.0000000   0.0000000), wk =   0.0400000
        k(   13) = (   0.4285714   0.0000000   0.0000000), wk =   0.0400000
        k(   14) = (   0.4642857   0.0000000   0.0000000), wk =   0.0400000
        k(   15) = (   0.5000000   0.0000000   0.0000000), wk =   0.0400000
        k(   16) = (   0.4791667   0.0416667   0.0000000), wk =   0.0400000
        k(   17) = (   0.4583333   0.0833333   0.0000000), wk =   0.0400000
        k(   18) = (   0.4375000   0.1250000   0.0000000), wk =   0.0400000
        k(   19) = (   0.4166667   0.1666667   0.0000000), wk =   0.0400000
        k(   20) = (   0.3958333   0.2083333   0.0000000), wk =   0.0400000
        k(   21) = (   0.3750000   0.2500000   0.0000000), wk =   0.0400000
        k(   22) = (   0.3541667   0.2916667   0.0000000), wk =   0.0400000
        k(   23) = (   0.3333333   0.3333333   0.0000000), wk =   0.0400000
        k(   24) = (   0.3148148   0.3148148   0.0000000), wk =   0.0400000
        k(   25) = (   0.2962963   0.2962963   0.0000000), wk =   0.0400000
        k(   26) = (   0.2777778   0.2777778   0.0000000), wk =   0.0400000
        k(   27) = (   0.2592593   0.2592593   0.0000000), wk =   0.0400000
        k(   28) = (   0.2407407   0.2407407   0.0000000), wk =   0.0400000
        k(   29) = (   0.2222222   0.2222222   0.0000000), wk =   0.0400000
        k(   30) = (   0.2037037   0.2037037   0.0000000), wk =   0.0400000
        k(   31) = (   0.1851852   0.1851852   0.0000000), wk =   0.0400000
        k(   32) = (   0.1666667   0.1666667   0.0000000), wk =   0.0400000
        k(   33) = (   0.1481481   0.1481481   0.0000000), wk =   0.0400000
        k(   34) = (   0.1296296   0.1296296   0.0000000), wk =   0.0400000
        k(   35) = (   0.1111111   0.1111111   0.0000000), wk =   0.0400000
        k(   36) = (   0.0925926   0.0925926   0.0000000), wk =   0.0400000
        k(   37) = (   0.0740741   0.0740741   0.0000000), wk =   0.0400000
        k(   38) = (   0.0555556   0.0555556   0.0000000), wk =   0.0400000
        k(   39) = (   0.0370370   0.0370370   0.0000000), wk =   0.0400000
        k(   40) = (   0.0185185   0.0185185   0.0000000), wk =   0.0400000
        k(   41) = (   0.0000000   0.0000000   0.0000000), wk =   0.0400000
        k(   42) = (   0.0000000   0.0000000   0.0555556), wk =   0.0400000
        k(   43) = (   0.0000000   0.0000000   0.1111111), wk =   0.0400000
        k(   44) = (   0.0000000   0.0000000   0.1666667), wk =   0.0400000
        k(   45) = (   0.0000000   0.0000000   0.2222222), wk =   0.0400000
        k(   46) = (   0.0000000   0.0000000   0.2777778), wk =   0.0400000
        k(   47) = (   0.0000000   0.0000000   0.3333333), wk =   0.0400000
        k(   48) = (   0.0000000   0.0000000   0.3888889), wk =   0.0400000
        k(   49) = (   0.0000000   0.0000000   0.4444444), wk =   0.0400000
        k(   50) = (   0.0000000   0.0000000   0.5000000), wk =   0.0400000

     Dense  grid:    16107 G-vectors     FFT dimensions: (  30,  30,  45)

     Smooth grid:    11561 G-vectors     FFT dimensions: (  25,  25,  45)

     Estimated max dynamical RAM per process >      25.09Mb

     Check: negative/imaginary core charge=   -0.000005    0.000000

     The potential is recalculated from file :
     ./pwscf.save/charge-density.dat

     Starting wfc are   26 randomized atomic wfcs

     Band Structure Calculation
     Davidson diagonalization with overlap

     Computing kpt #:     1
     total cpu time spent up to now is        1.1 secs

     Computing kpt #:     2
     total cpu time spent up to now is        1.8 secs

     Computing kpt #:     3
     total cpu time spent up to now is        2.3 secs

     Computing kpt #:     4
     total cpu time spent up to now is        2.8 secs

     Computing kpt #:     5
     total cpu time spent up to now is        3.6 secs

     Computing kpt #:     6
     total cpu time spent up to now is        4.1 secs

     Computing kpt #:     7
     total cpu time spent up to now is        4.5 secs

     Computing kpt #:     8
     total cpu time spent up to now is        4.9 secs

     Computing kpt #:     9
     total cpu time spent up to now is        5.2 secs

     Computing kpt #:    10
     total cpu time spent up to now is        5.6 secs

     Computing kpt #:    11
     total cpu time spent up to now is        5.9 secs

     Computing kpt #:    12
     total cpu time spent up to now is        6.4 secs

     Computing kpt #:    13
     total cpu time spent up to now is        6.8 secs

     Computing kpt #:    14
     total cpu time spent up to now is        7.2 secs

     Computing kpt #:    15
     total cpu time spent up to now is        7.5 secs

     Computing kpt #:    16
     total cpu time spent up to now is        7.9 secs

     Computing kpt #:    17
     total cpu time spent up to now is        8.2 secs

     Computing kpt #:    18
     total cpu time spent up to now is        8.6 secs

     Computing kpt #:    19
     total cpu time spent up to now is        8.9 secs

     Computing kpt #:    20
     total cpu time spent up to now is        9.5 secs

     Computing kpt #:    21
     total cpu time spent up to now is        9.9 secs

     Computing kpt #:    22
     total cpu time spent up to now is       10.2 secs

     Computing kpt #:    23
     total cpu time spent up to now is       10.5 secs

     Computing kpt #:    24
     total cpu time spent up to now is       10.8 secs

     Computing kpt #:    25
     total cpu time spent up to now is       11.2 secs

     Computing kpt #:    26
     total cpu time spent up to now is       11.6 secs

     Computing kpt #:    27
     total cpu time spent up to now is       12.2 secs

     Computing kpt #:    28
     total cpu time spent up to now is       12.6 secs

     Computing kpt #:    29
     total cpu time spent up to now is       12.9 secs

     Computing kpt #:    30
     total cpu time spent up to now is       13.3 secs

     Computing kpt #:    31
     total cpu time spent up to now is       13.7 secs

     Computing kpt #:    32
     total cpu time spent up to now is       14.1 secs

     Computing kpt #:    33
     total cpu time spent up to now is       14.5 secs

     Computing kpt #:    34
     total cpu time spent up to now is       14.9 secs

     Computing kpt #:    35
     total cpu time spent up to now is       15.4 secs

     Computing kpt #:    36
     total cpu time spent up to now is       16.0 secs

     Computing kpt #:    37
     total cpu time spent up to now is       16.7 secs

     Computing kpt #:    38
     total cpu time spent up to now is       17.2 secs

     Computing kpt #:    39
     total cpu time spent up to now is       17.7 secs

     Computing kpt #:    40
     total cpu time spent up to now is       18.1 secs

     Computing kpt #:    41
     total cpu time spent up to now is       18.5 secs

     Computing kpt #:    42
     total cpu time spent up to now is       18.8 secs

     Computing kpt #:    43
     total cpu time spent up to now is       19.2 secs

     Computing kpt #:    44
     total cpu time spent up to now is       19.6 secs

     Computing kpt #:    45
     total cpu time spent up to now is       19.9 secs

     Computing kpt #:    46
     total cpu time spent up to now is       20.3 secs

     Computing kpt #:    47
     total cpu time spent up to now is       20.7 secs

     Computing kpt #:    48
     total cpu time spent up to now is       21.2 secs

     Computing kpt #:    49
     total cpu time spent up to now is       21.6 secs

     Computing kpt #:    50
     total cpu time spent up to now is       21.9 secs

     ethr =  4.55E-10,  avg # of iterations = 18.2

     total cpu time spent up to now is       21.9 secs

     End of band structure calculation

          k = 0.0000 0.0000 0.0000 (  1449 PWs)   bands (ev):

   -40.3943 -40.3334 -19.1811 -18.8803 -18.8803 -18.8238 -18.8238 -18.7862
     3.9731   7.4192   9.4935  10.6604  10.6604  10.7881  11.0675

          k = 0.0357 0.0206 0.0000 (  1443 PWs)   bands (ev):

   -40.3937 -40.3332 -19.1795 -18.8835 -18.8814 -18.8272 -18.8243 -18.7868
     4.0010   7.4433   9.4712  10.5822  10.6806  10.8515  11.0491

          k = 0.0714 0.0412 0.0000 (  1435 PWs)   bands (ev):

   -40.3920 -40.3324 -19.1748 -18.8931 -18.8846 -18.8373 -18.8257 -18.7888
     4.0843   7.5147   9.4078  10.4443  10.7406  10.9391  11.0046

          k = 0.1071 0.0619 0.0000 (  1437 PWs)   bands (ev):

   -40.3892 -40.3313 -19.1671 -18.9088 -18.8897 -18.8536 -18.8279 -18.7921
     4.2215   7.6292   9.3127  10.2808  10.8393  10.8969  11.0674

          k = 0.1429 0.0825 0.0000 (  1439 PWs)   bands (ev):

   -40.3854 -40.3299 -19.1566 -18.9297 -18.8964 -18.8749 -18.8310 -18.7968
     4.4102   7.7798   9.1974  10.0991  10.7922  10.9750  11.1414

          k = 0.1786 0.1031 0.0000 (  1429 PWs)   bands (ev):

   -40.3808 -40.3282 -19.1437 -18.9547 -18.9043 -18.9001 -18.8349 -18.8027
     4.6469   7.9550   9.0727   9.9074  10.6781  11.0223  11.1032

          k = 0.2143 0.1237 0.0000 (  1431 PWs)   bands (ev):

   -40.3756 -40.3264 -19.1285 -18.9828 -18.9279 -18.9129 -18.8393 -18.8101
     4.9272   8.1372   8.9475   9.7150  10.5727  10.8999  10.9969

          k = 0.2500 0.1443 0.0000 (  1439 PWs)   bands (ev):

   -40.3700 -40.3247 -19.1117 -19.0126 -18.9567 -18.9218 -18.8441 -18.8188
     5.2451   8.3020   8.8281   9.5312  10.4957  10.7785  10.8926

          k = 0.2857 0.1650 0.0000 (  1441 PWs)   bands (ev):

   -40.3642 -40.3231 -19.0937 -19.0424 -18.9851 -18.9307 -18.8490 -18.8286
     5.5933   8.4202   8.7194   9.3635  10.4671  10.6627  10.7947

          k = 0.3214 0.1856 0.0000 (  1437 PWs)   bands (ev):

   -40.3584 -40.3219 -19.0750 -19.0709 -19.0117 -18.9390 -18.8537 -18.8394
     5.9627   8.4697   8.6242   9.2154  10.4971  10.5563  10.7064

          k = 0.3571 0.2062 0.0000 (  1449 PWs)   bands (ev):

   -40.3530 -40.3210 -19.0965 -19.0566 -19.0353 -18.9464 -18.8580 -18.8509
     6.3417   8.4490   8.5448   9.0844  10.4634  10.5746  10.6307

          k = 0.3929 0.2268 0.0000 (  1447 PWs)   bands (ev):

   -40.3481 -40.3206 -19.1178 -19.0549 -19.0393 -18.9525 -18.8623 -18.8616
     6.7159   8.3737   8.4821   8.9680  10.3873  10.5697  10.6705

          k = 0.4286 0.2474 0.0000 (  1433 PWs)   bands (ev):

   -40.3442 -40.3206 -19.1339 -19.0694 -19.0245 -18.9571 -18.8726 -18.8643
     7.0654   8.2586   8.4371   8.8710  10.3308  10.5250  10.7551

          k = 0.4643 0.2681 0.0000 (  1432 PWs)   bands (ev):

   -40.3416 -40.3207 -19.1439 -19.0784 -19.0142 -18.9599 -18.8802 -18.8661
     7.3563   8.1206   8.4100   8.8055  10.2960  10.4978  10.8100

          k = 0.5000 0.2887 0.0000 (  1432 PWs)   bands (ev):

   -40.3407 -40.3208 -19.1473 -19.0815 -19.0103 -18.9609 -18.8830 -18.8667
     7.4931   8.0372   8.4009   8.7824  10.2843  10.4886  10.8286

          k = 0.4792 0.3248 0.0000 (  1432 PWs)   bands (ev):

   -40.3404 -40.3208 -19.1459 -19.0802 -19.0091 -18.9634 -18.8839 -18.8696
     7.5154   8.0548   8.4088   8.7754  10.2792  10.4711  10.8344

          k = 0.4583 0.3608 0.0000 (  1436 PWs)   bands (ev):

   -40.3395 -40.3209 -19.1419 -19.0765 -19.0055 -18.9707 -18.8867 -18.8784
     7.5805   8.1049   8.4315   8.7557  10.2641  10.4212  10.8513

          k = 0.4375 0.3969 0.0000 (  1444 PWs)   bands (ev):

   -40.3380 -40.3211 -19.1355 -19.0704 -18.9995 -18.9819 -18.8923 -18.8914
     7.6835   8.1800   8.4669   8.7264  10.2397  10.3464  10.8793

          k = 0.4167 0.4330 0.0000 (  1432 PWs)   bands (ev):

   -40.3361 -40.3215 -19.1269 -19.0624 -18.9961 -18.9913 -18.9100 -18.8978
     7.8165   8.2672   8.5109   8.6919  10.2076  10.2583  10.9176

          k = 0.3958 0.4691 0.0000 (  1428 PWs)   bands (ev):

   -40.3339 -40.3222 -19.1169 -19.0531 -19.0115 -18.9812 -18.9299 -18.9061
     7.9685   8.3495   8.5573   8.6554  10.1702  10.1713  10.9639

          k = 0.3750 0.5052 0.0000 (  1430 PWs)   bands (ev):

   -40.3315 -40.3232 -19.1066 -19.0436 -19.0258 -18.9694 -18.9497 -18.9163
     8.1270   8.4111   8.5982   8.6142  10.1010  10.1309  11.0132

          k = 0.3542 0.5413 0.0000 (  1426 PWs)   bands (ev):

   -40.3290 -40.3246 -19.0984 -19.0366 -19.0355 -18.9654 -18.9563 -18.9283
     8.2797   8.4465   8.5522   8.6258  10.0622  10.0942  11.0543

          k = 0.3333 0.5774 0.0000 (  1422 PWs)   bands (ev):

   -40.3268 -40.3264 -19.0954 -19.0366 -19.0362 -18.9716 -18.9423 -18.9419
     8.4171   8.4172   8.4900   8.6351  10.0645  10.0647  11.0716

          k = 0.3148 0.5453 0.0000 (  1430 PWs)   bands (ev):

   -40.3289 -40.3247 -19.0968 -19.0427 -19.0294 -18.9674 -18.9557 -18.9289
     8.2573   8.5079   8.5220   8.6289  10.0481  10.1030  11.0551

          k = 0.2963 0.5132 0.0000 (  1436 PWs)   bands (ev):

   -40.3317 -40.3231 -19.0987 -19.0510 -19.0179 -18.9705 -18.9576 -18.9154
     8.0288   8.5426   8.6094   8.6145  10.0439  10.1710  11.0039

          k = 0.2778 0.4811 0.0000 (  1436 PWs)   bands (ev):

   -40.3349 -40.3218 -19.0981 -19.0577 -19.0043 -18.9863 -18.9452 -18.9018
     7.7450   8.5932   8.5988   8.6793  10.0544  10.2618  10.9208

          k = 0.2593 0.4491 0.0000 (  1428 PWs)   bands (ev):

   -40.3388 -40.3209 -19.0938 -19.0612 -19.0030 -18.9897 -18.9318 -18.8884
     7.4201   8.5884   8.6617   8.7308  10.0814  10.3674  10.8143

          k = 0.2407 0.4170 0.0000 (  1442 PWs)   bands (ev):

   -40.3430 -40.3205 -19.0851 -19.0606 -19.0204 -18.9751 -18.9181 -18.8753
     7.0688   8.5887   8.7495   8.7610  10.1261  10.4808  10.6975

          k = 0.2222 0.3849 0.0000 (  1438 PWs)   bands (ev):

   -40.3477 -40.3205 -19.0719 -19.0557 -19.0382 -18.9608 -18.9047 -18.8627
     6.7046   8.6034   8.7636   8.8567  10.1890  10.5870  10.5963

          k = 0.2037 0.3528 0.0000 (  1446 PWs)   bands (ev):

   -40.3528 -40.3210 -19.0562 -19.0546 -19.0465 -18.9469 -18.8919 -18.8509
     6.3386   8.6346   8.7300   8.9828  10.2698  10.5005  10.7091

          k = 0.1852 0.3208 0.0000 (  1446 PWs)   bands (ev):

   -40.3581 -40.3218 -19.0740 -19.0336 -19.0332 -18.9338 -18.8798 -18.8399
     5.9801   8.6539   8.6834   9.1265  10.3676  10.4526  10.8160

          k = 0.1667 0.2887 0.0000 (  1430 PWs)   bands (ev):

   -40.3634 -40.3229 -19.0914 -19.0169 -19.0094 -18.9215 -18.8687 -18.8298
     5.6365   8.5355   8.7492   9.2854  10.4496  10.4804  10.9148

          k = 0.1481 0.2566 0.0000 (  1434 PWs)   bands (ev):

   -40.3688 -40.3243 -19.1081 -18.9980 -18.9837 -18.9100 -18.8587 -18.8206
     5.3140   8.3836   8.8308   9.4565  10.4882  10.6058  11.0046

          k = 0.1296 0.2245 0.0000 (  1431 PWs)   bands (ev):

   -40.3740 -40.3259 -19.1237 -18.9777 -18.9576 -18.8991 -18.8499 -18.8125
     5.0178   8.2122   8.9258   9.6358  10.5585  10.7403  11.0855

          k = 0.1111 0.1925 0.0000 (  1433 PWs)   bands (ev):

   -40.3788 -40.3275 -19.1379 -18.9569 -18.9330 -18.8882 -18.8424 -18.8055
     4.7522   8.0357   9.0303   9.8185  10.6489  10.8796  11.1583

          k = 0.0926 0.1604 0.0000 (  1433 PWs)   bands (ev):

   -40.3833 -40.3291 -19.1505 -18.9368 -18.9124 -18.8761 -18.8362 -18.7995
     4.5210   7.8667   9.1396   9.9992  10.7474  11.0182  11.0720

          k = 0.0741 0.1283 0.0000 (  1437 PWs)   bands (ev):

   -40.3871 -40.3305 -19.1612 -18.9183 -18.8979 -18.8618 -18.8313 -18.7947
     4.3274   7.7155   9.2470  10.1722  10.8382  10.9346  11.0954

          k = 0.0556 0.0962 0.0000 (  1431 PWs)   bands (ev):

   -40.3902 -40.3317 -19.1698 -18.9026 -18.8891 -18.8470 -18.8277 -18.7909
     4.1740   7.5901   9.3446  10.3322  10.8033  10.9434  11.0116

          k = 0.0370 0.0642 0.0000 (  1431 PWs)   bands (ev):

   -40.3924 -40.3326 -19.1760 -18.8905 -18.8839 -18.8346 -18.8254 -18.7883
     4.0629   7.4965   9.4237  10.4746  10.7251  10.9267  11.0090

          k = 0.0185 0.0321 0.0000 (  1435 PWs)   bands (ev):

   -40.3938 -40.3332 -19.1798 -18.8828 -18.8811 -18.8266 -18.8242 -18.7867
     3.9956   7.4387   9.4755  10.5943  10.6767  10.8423  11.0525

          k = 0.0000 0.0000 0.0000 (  1449 PWs)   bands (ev):

   -40.3943 -40.3334 -19.1811 -18.8803 -18.8803 -18.8238 -18.8238 -18.7862
     3.9731   7.4192   9.4935  10.6604  10.6604  10.7881  11.0675

          k = 0.0000 0.0000 0.0349 (  1436 PWs)   bands (ev):

   -40.3938 -40.3339 -19.1782 -18.8798 -18.8798 -18.8242 -18.8242 -18.7892
     3.9932   7.3862   9.4897  10.6509  10.6509  10.7748  11.0560

          k = 0.0000 0.0000 0.0697 (  1436 PWs)   bands (ev):

   -40.3925 -40.3352 -19.1696 -18.8785 -18.8785 -18.8255 -18.8255 -18.7984
     4.0531   7.2878   9.4834  10.6266  10.6266  10.7353  11.0232

          k = 0.0000 0.0000 0.1046 (  1442 PWs)   bands (ev):

   -40.3903 -40.3375 -19.1555 -18.8765 -18.8765 -18.8276 -18.8276 -18.8134
     4.1521   7.1267   9.4861  10.5966  10.5966  10.6712  10.9730

          k = 0.0000 0.0000 0.1395 (  1448 PWs)   bands (ev):

   -40.3872 -40.3406 -19.1363 -18.8737 -18.8737 -18.8337 -18.8304 -18.8304
     4.2889   6.9102   9.5087  10.5694  10.5694  10.5850  10.9110

          k = 0.0000 0.0000 0.1743 (  1466 PWs)   bands (ev):

   -40.3835 -40.3443 -19.1125 -18.8702 -18.8702 -18.8588 -18.8339 -18.8339
     4.4617   6.6505   9.5567  10.4801  10.5507  10.5507  10.8430

          k = 0.0000 0.0000 0.2092 (  1460 PWs)   bands (ev):

   -40.3792 -40.3487 -19.0849 -18.8875 -18.8662 -18.8662 -18.8380 -18.8380
     4.6680   6.3617   9.6302  10.3607  10.5439  10.5439  10.7744

          k = 0.0000 0.0000 0.2440 (  1454 PWs)   bands (ev):

   -40.3744 -40.3535 -19.0541 -18.9190 -18.8617 -18.8617 -18.8424 -18.8424
     4.9047   6.0580   9.7261  10.2316  10.5506  10.5506  10.7097

          k = 0.0000 0.0000 0.2789 (  1430 PWs)   bands (ev):

   -40.3692 -40.3587 -19.0211 -18.9525 -18.8569 -18.8569 -18.8471 -18.8471
     5.1677   5.7515   9.8397  10.0980  10.5714  10.5714  10.6526

          k = 0.0000 0.0000 0.3138 (  1448 PWs)   bands (ev):

   -40.3642 -40.3637 -18.9872 -18.9868 -18.8522 -18.8522 -18.8518 -18.8518
     5.4520   5.4521   9.9654   9.9656  10.6057  10.6057  10.6059

     Writing output data file pwscf.save

     init_run     :      0.73s CPU      0.65s WALL (       1 calls)
     electrons    :     31.59s CPU     21.19s WALL (       1 calls)

     Called by init_run:
     wfcinit      :      0.00s CPU      0.00s WALL (       1 calls)
     wfcinit:atom :      0.06s CPU      0.08s WALL (      50 calls)
     wfcinit:wfcr :      2.88s CPU      1.89s WALL (      50 calls)
     potinit      :      0.03s CPU      0.05s WALL (       1 calls)

     Called by electrons:
     c_bands      :     31.59s CPU     21.18s WALL (       1 calls)
     v_of_rho     :      0.03s CPU      0.04s WALL (       1 calls)
     v_h          :      0.00s CPU      0.00s WALL (       1 calls)
     v_xc         :      0.03s CPU      0.04s WALL (       1 calls)
     newd         :      0.02s CPU      0.15s WALL (       1 calls)

     Called by c_bands:
     init_us_2    :      0.06s CPU      0.07s WALL (      50 calls)
     cegterg      :     27.56s CPU     18.46s WALL (      61 calls)

     Called by sum_band:

     Called by *egterg:
     h_psi        :     19.31s CPU     12.70s WALL (    1021 calls)
     s_psi        :      0.83s CPU      0.54s WALL (    1021 calls)
     g_psi        :      0.22s CPU      0.13s WALL (     910 calls)
     cdiaghg      :      4.44s CPU      3.75s WALL (     960 calls)
     cegterg:over :      1.95s CPU      1.23s WALL (     910 calls)
     cegterg:upda :      1.89s CPU      0.96s WALL (     910 calls)
     cegterg:last :      1.11s CPU      0.61s WALL (     189 calls)

     Called by h_psi:
     h_psi:pot    :     19.20s CPU     12.59s WALL (    1021 calls)
     h_psi:calbec :      0.64s CPU      0.63s WALL (    1021 calls)
     vloc_psi     :     17.38s CPU     11.32s WALL (    1021 calls)
     add_vuspsi   :      1.19s CPU      0.61s WALL (    1021 calls)

     General routines
     calbec       :      0.62s CPU      0.62s WALL (    1021 calls)
     fft          :      0.00s CPU      0.02s WALL (      13 calls)
     ffts         :      0.00s CPU      0.00s WALL (       1 calls)
     fftw         :     14.66s CPU      9.60s WALL (   18802 calls)
     interpolate  :      0.00s CPU      0.00s WALL (       1 calls)
     davcio       :      0.00s CPU      0.01s WALL (      50 calls)

     Parallel routines
     fft_scatter  :      1.20s CPU      0.91s WALL (   18816 calls)

     PWSCF        :    32.69s CPU        22.36s WALL


   This run was terminated on:  12:32: 0  25Feb2021            

=------------------------------------------------------------------------------=
   JOB DONE.
=------------------------------------------------------------------------------=
