
     Program PWSCF v.6.0 (svn rev. 13079) starts on 25Feb2021 at 11:14:40 

     This program is part of the open-source Quantum ESPRESSO suite
     for quantum simulation of materials; please cite
         "P. Giannozzi et al., J. Phys.:Condens. Matter 21 395502 (2009);
          URL http://www.quantum-espresso.org", 
     in publications or presentations arising from this work. More details at
     http://www.quantum-espresso.org/quote

     Parallel version (MPI), running on     1 processors
     Reading input from espresso.pwi
Warning: card &IONS ignored
Warning: card / ignored
Warning: card &CELL ignored
Warning: card / ignored

     Current dimensions of program PWSCF are:
     Max number of different atomic species (ntypx) = 10
     Max number of k-points (npk) =  40000
     Max angular momentum in pseudopotentials (lmaxx) =  3
     Message from routine input:
     WARNING: "startingwfc" set to atomic+random may spoil restart

     Atomic positions and unit cell read from directory:
     ./pwscf.save/


     IMPORTANT: XC functional enforced from input :
     Exchange-correlation      = PBE ( 1  4  3  4 0 0)
     Any further DFT definition will be discarded
     Please, verify this is what you really want


     Subspace diagonalization in iterative solution of the eigenvalue problem:
     a serial algorithm will be used


     G-vector sticks info
     --------------------
     sticks:   dense  smooth     PW     G-vecs:    dense   smooth      PW
     Sum         249     205     69                 2491     1865     381



     bravais-lattice index     =            0
     lattice parameter (alat)  =       4.0881  a.u.
     unit-cell volume          =      52.5949 (a.u.)^3
     number of atoms/cell      =            1
     number of atomic types    =            1
     number of electrons       =         6.00
     number of Kohn-Sham states=            7
     kinetic-energy cutoff     =      40.0000  Ry
     charge density cutoff     =     200.0000  Ry
     Exchange-correlation      = PBE ( 1  4  3  4 0 0)

     celldm(1)=   4.088104  celldm(2)=   0.000000  celldm(3)=   0.000000
     celldm(4)=   0.000000  celldm(5)=   0.000000  celldm(6)=   0.000000

     crystal axes: (cart. coord. in units of alat)
               a(1) = (  -0.577350   0.577350   0.577350 )  
               a(2) = (   0.577350  -0.577350   0.577350 )  
               a(3) = (   0.577350   0.577350  -0.577350 )  

     reciprocal axes: (cart. coord. in units 2 pi/alat)
               b(1) = (  0.000000  0.866025  0.866025 )  
               b(2) = (  0.866025  0.000000  0.866025 )  
               b(3) = (  0.866025  0.866025  0.000000 )  


     PseudoPot. # 1 for O  read from file:
     /home/inukai/tango/tests/1element/qe_fit_v2_O/../pseudo/o_pbe_v1.2.uspp.F.UPF
     MD5 check sum: 734c27235a0248c51dbae37a1fbe46ec
     Pseudo is Ultrasoft + core correction, Zval =  6.0
     Generated by new atomic code, or converted to UPF format
     Using radial grid of  737 points,  5 beta functions with: 
                l(1) =   0
                l(2) =   0
                l(3) =   1
                l(4) =   1
                l(5) =   2
     Q(r) pseudized with  8 coefficients,  rinner =    0.900   0.900   0.900
                                                       0.900   0.900

     atomic species   valence    mass     pseudopotential
        O              6.00    15.99900     O ( 1.00)

     48 Sym. Ops., with inversion, found


                                    s                        frac. trans.

      isym =  1     identity                                     

 cryst.   s( 1) = (     1          0          0      )
                  (     0          1          0      )
                  (     0          0          1      )

 cart.    s( 1) = (  1.0000000  0.0000000  0.0000000 )
                  (  0.0000000  1.0000000  0.0000000 )
                  (  0.0000000  0.0000000  1.0000000 )


      isym =  2     180 deg rotation - cart. axis [0,0,1]        

 cryst.   s( 2) = (     0          1          0      )
                  (     1          0          0      )
                  (    -1         -1         -1      )

 cart.    s( 2) = ( -1.0000000  0.0000000  0.0000000 )
                  (  0.0000000 -1.0000000  0.0000000 )
                  (  0.0000000  0.0000000  1.0000000 )


      isym =  3     180 deg rotation - cart. axis [0,1,0]        

 cryst.   s( 3) = (     0          0          1      )
                  (    -1         -1         -1      )
                  (     1          0          0      )

 cart.    s( 3) = ( -1.0000000  0.0000000  0.0000000 )
                  (  0.0000000  1.0000000  0.0000000 )
                  (  0.0000000  0.0000000 -1.0000000 )


      isym =  4     180 deg rotation - cart. axis [1,0,0]        

 cryst.   s( 4) = (    -1         -1         -1      )
                  (     0          0          1      )
                  (     0          1          0      )

 cart.    s( 4) = (  1.0000000  0.0000000  0.0000000 )
                  (  0.0000000 -1.0000000  0.0000000 )
                  (  0.0000000  0.0000000 -1.0000000 )


      isym =  5     180 deg rotation - cart. axis [1,1,0]        

 cryst.   s( 5) = (    -1          0          0      )
                  (     0         -1          0      )
                  (     1          1          1      )

 cart.    s( 5) = (  0.0000000  1.0000000  0.0000000 )
                  (  1.0000000  0.0000000  0.0000000 )
                  (  0.0000000  0.0000000 -1.0000000 )


      isym =  6     180 deg rotation - cart. axis [1,-1,0]       

 cryst.   s( 6) = (     0         -1          0      )
                  (    -1          0          0      )
                  (     0          0         -1      )

 cart.    s( 6) = (  0.0000000 -1.0000000  0.0000000 )
                  ( -1.0000000  0.0000000  0.0000000 )
                  (  0.0000000  0.0000000 -1.0000000 )


      isym =  7      90 deg rotation - cart. axis [0,0,-1]       

 cryst.   s( 7) = (     1          1          1      )
                  (     0          0         -1      )
                  (    -1          0          0      )

 cart.    s( 7) = (  0.0000000  1.0000000  0.0000000 )
                  ( -1.0000000  0.0000000  0.0000000 )
                  (  0.0000000  0.0000000  1.0000000 )


      isym =  8      90 deg rotation - cart. axis [0,0,1]        

 cryst.   s( 8) = (     0          0         -1      )
                  (     1          1          1      )
                  (     0         -1          0      )

 cart.    s( 8) = (  0.0000000 -1.0000000  0.0000000 )
                  (  1.0000000  0.0000000  0.0000000 )
                  (  0.0000000  0.0000000  1.0000000 )


      isym =  9     180 deg rotation - cart. axis [1,0,1]        

 cryst.   s( 9) = (    -1          0          0      )
                  (     1          1          1      )
                  (     0          0         -1      )

 cart.    s( 9) = (  0.0000000  0.0000000  1.0000000 )
                  (  0.0000000 -1.0000000  0.0000000 )
                  (  1.0000000  0.0000000  0.0000000 )


      isym = 10     180 deg rotation - cart. axis [-1,0,1]       

 cryst.   s(10) = (     0          0         -1      )
                  (     0         -1          0      )
                  (    -1          0          0      )

 cart.    s(10) = (  0.0000000  0.0000000 -1.0000000 )
                  (  0.0000000 -1.0000000  0.0000000 )
                  ( -1.0000000  0.0000000  0.0000000 )


      isym = 11      90 deg rotation - cart. axis [0,1,0]        

 cryst.   s(11) = (     1          1          1      )
                  (    -1          0          0      )
                  (     0         -1          0      )

 cart.    s(11) = (  0.0000000  0.0000000  1.0000000 )
                  (  0.0000000  1.0000000  0.0000000 )
                  ( -1.0000000  0.0000000  0.0000000 )


      isym = 12      90 deg rotation - cart. axis [0,-1,0]       

 cryst.   s(12) = (     0         -1          0      )
                  (     0          0         -1      )
                  (     1          1          1      )

 cart.    s(12) = (  0.0000000  0.0000000 -1.0000000 )
                  (  0.0000000  1.0000000  0.0000000 )
                  (  1.0000000  0.0000000  0.0000000 )


      isym = 13     180 deg rotation - cart. axis [0,1,1]        

 cryst.   s(13) = (     1          1          1      )
                  (     0         -1          0      )
                  (     0          0         -1      )

 cart.    s(13) = ( -1.0000000  0.0000000  0.0000000 )
                  (  0.0000000  0.0000000  1.0000000 )
                  (  0.0000000  1.0000000  0.0000000 )


      isym = 14     180 deg rotation - cart. axis [0,1,-1]       

 cryst.   s(14) = (    -1          0          0      )
                  (     0          0         -1      )
                  (     0         -1          0      )

 cart.    s(14) = ( -1.0000000  0.0000000  0.0000000 )
                  (  0.0000000  0.0000000 -1.0000000 )
                  (  0.0000000 -1.0000000  0.0000000 )


      isym = 15      90 deg rotation - cart. axis [-1,0,0]       

 cryst.   s(15) = (     0         -1          0      )
                  (     1          1          1      )
                  (    -1          0          0      )

 cart.    s(15) = (  1.0000000  0.0000000  0.0000000 )
                  (  0.0000000  0.0000000  1.0000000 )
                  (  0.0000000 -1.0000000  0.0000000 )


      isym = 16      90 deg rotation - cart. axis [1,0,0]        

 cryst.   s(16) = (     0          0         -1      )
                  (    -1          0          0      )
                  (     1          1          1      )

 cart.    s(16) = (  1.0000000  0.0000000  0.0000000 )
                  (  0.0000000  0.0000000 -1.0000000 )
                  (  0.0000000  1.0000000  0.0000000 )


      isym = 17     120 deg rotation - cart. axis [-1,-1,-1]     

 cryst.   s(17) = (     0          0          1      )
                  (     1          0          0      )
                  (     0          1          0      )

 cart.    s(17) = (  0.0000000  1.0000000  0.0000000 )
                  (  0.0000000  0.0000000  1.0000000 )
                  (  1.0000000  0.0000000  0.0000000 )


      isym = 18     120 deg rotation - cart. axis [-1,1,1]       

 cryst.   s(18) = (     1          0          0      )
                  (     0          0          1      )
                  (    -1         -1         -1      )

 cart.    s(18) = (  0.0000000 -1.0000000  0.0000000 )
                  (  0.0000000  0.0000000  1.0000000 )
                  ( -1.0000000  0.0000000  0.0000000 )


      isym = 19     120 deg rotation - cart. axis [1,1,-1]       

 cryst.   s(19) = (     0          1          0      )
                  (    -1         -1         -1      )
                  (     0          0          1      )

 cart.    s(19) = (  0.0000000  1.0000000  0.0000000 )
                  (  0.0000000  0.0000000 -1.0000000 )
                  ( -1.0000000  0.0000000  0.0000000 )


      isym = 20     120 deg rotation - cart. axis [1,-1,1]       

 cryst.   s(20) = (    -1         -1         -1      )
                  (     0          1          0      )
                  (     1          0          0      )

 cart.    s(20) = (  0.0000000 -1.0000000  0.0000000 )
                  (  0.0000000  0.0000000 -1.0000000 )
                  (  1.0000000  0.0000000  0.0000000 )


      isym = 21     120 deg rotation - cart. axis [1,1,1]        

 cryst.   s(21) = (     0          1          0      )
                  (     0          0          1      )
                  (     1          0          0      )

 cart.    s(21) = (  0.0000000  0.0000000  1.0000000 )
                  (  1.0000000  0.0000000  0.0000000 )
                  (  0.0000000  1.0000000  0.0000000 )


      isym = 22     120 deg rotation - cart. axis [-1,1,-1]      

 cryst.   s(22) = (     0          0          1      )
                  (     0          1          0      )
                  (    -1         -1         -1      )

 cart.    s(22) = (  0.0000000  0.0000000  1.0000000 )
                  ( -1.0000000  0.0000000  0.0000000 )
                  (  0.0000000 -1.0000000  0.0000000 )


      isym = 23     120 deg rotation - cart. axis [1,-1,-1]      

 cryst.   s(23) = (     1          0          0      )
                  (    -1         -1         -1      )
                  (     0          1          0      )

 cart.    s(23) = (  0.0000000  0.0000000 -1.0000000 )
                  ( -1.0000000  0.0000000  0.0000000 )
                  (  0.0000000  1.0000000  0.0000000 )


      isym = 24     120 deg rotation - cart. axis [-1,-1,1]      

 cryst.   s(24) = (    -1         -1         -1      )
                  (     1          0          0      )
                  (     0          0          1      )

 cart.    s(24) = (  0.0000000  0.0000000 -1.0000000 )
                  (  1.0000000  0.0000000  0.0000000 )
                  (  0.0000000 -1.0000000  0.0000000 )


      isym = 25     inversion                                    

 cryst.   s(25) = (    -1          0          0      )
                  (     0         -1          0      )
                  (     0          0         -1      )

 cart.    s(25) = ( -1.0000000  0.0000000  0.0000000 )
                  (  0.0000000 -1.0000000  0.0000000 )
                  (  0.0000000  0.0000000 -1.0000000 )


      isym = 26     inv. 180 deg rotation - cart. axis [0,0,1]   

 cryst.   s(26) = (     0         -1          0      )
                  (    -1          0          0      )
                  (     1          1          1      )

 cart.    s(26) = (  1.0000000  0.0000000  0.0000000 )
                  (  0.0000000  1.0000000  0.0000000 )
                  (  0.0000000  0.0000000 -1.0000000 )


      isym = 27     inv. 180 deg rotation - cart. axis [0,1,0]   

 cryst.   s(27) = (     0          0         -1      )
                  (     1          1          1      )
                  (    -1          0          0      )

 cart.    s(27) = (  1.0000000  0.0000000  0.0000000 )
                  (  0.0000000 -1.0000000  0.0000000 )
                  (  0.0000000  0.0000000  1.0000000 )


      isym = 28     inv. 180 deg rotation - cart. axis [1,0,0]   

 cryst.   s(28) = (     1          1          1      )
                  (     0          0         -1      )
                  (     0         -1          0      )

 cart.    s(28) = ( -1.0000000  0.0000000  0.0000000 )
                  (  0.0000000  1.0000000  0.0000000 )
                  (  0.0000000  0.0000000  1.0000000 )


      isym = 29     inv. 180 deg rotation - cart. axis [1,1,0]   

 cryst.   s(29) = (     1          0          0      )
                  (     0          1          0      )
                  (    -1         -1         -1      )

 cart.    s(29) = (  0.0000000 -1.0000000  0.0000000 )
                  ( -1.0000000  0.0000000  0.0000000 )
                  (  0.0000000  0.0000000  1.0000000 )


      isym = 30     inv. 180 deg rotation - cart. axis [1,-1,0]  

 cryst.   s(30) = (     0          1          0      )
                  (     1          0          0      )
                  (     0          0          1      )

 cart.    s(30) = (  0.0000000  1.0000000  0.0000000 )
                  (  1.0000000  0.0000000  0.0000000 )
                  (  0.0000000  0.0000000  1.0000000 )


      isym = 31     inv.  90 deg rotation - cart. axis [0,0,-1]  

 cryst.   s(31) = (    -1         -1         -1      )
                  (     0          0          1      )
                  (     1          0          0      )

 cart.    s(31) = (  0.0000000 -1.0000000  0.0000000 )
                  (  1.0000000  0.0000000  0.0000000 )
                  (  0.0000000  0.0000000 -1.0000000 )


      isym = 32     inv.  90 deg rotation - cart. axis [0,0,1]   

 cryst.   s(32) = (     0          0          1      )
                  (    -1         -1         -1      )
                  (     0          1          0      )

 cart.    s(32) = (  0.0000000  1.0000000  0.0000000 )
                  ( -1.0000000  0.0000000  0.0000000 )
                  (  0.0000000  0.0000000 -1.0000000 )


      isym = 33     inv. 180 deg rotation - cart. axis [1,0,1]   

 cryst.   s(33) = (     1          0          0      )
                  (    -1         -1         -1      )
                  (     0          0          1      )

 cart.    s(33) = (  0.0000000  0.0000000 -1.0000000 )
                  (  0.0000000  1.0000000  0.0000000 )
                  ( -1.0000000  0.0000000  0.0000000 )


      isym = 34     inv. 180 deg rotation - cart. axis [-1,0,1]  

 cryst.   s(34) = (     0          0          1      )
                  (     0          1          0      )
                  (     1          0          0      )

 cart.    s(34) = (  0.0000000  0.0000000  1.0000000 )
                  (  0.0000000  1.0000000  0.0000000 )
                  (  1.0000000  0.0000000  0.0000000 )


      isym = 35     inv.  90 deg rotation - cart. axis [0,1,0]   

 cryst.   s(35) = (    -1         -1         -1      )
                  (     1          0          0      )
                  (     0          1          0      )

 cart.    s(35) = (  0.0000000  0.0000000 -1.0000000 )
                  (  0.0000000 -1.0000000  0.0000000 )
                  (  1.0000000  0.0000000  0.0000000 )


      isym = 36     inv.  90 deg rotation - cart. axis [0,-1,0]  

 cryst.   s(36) = (     0          1          0      )
                  (     0          0          1      )
                  (    -1         -1         -1      )

 cart.    s(36) = (  0.0000000  0.0000000  1.0000000 )
                  (  0.0000000 -1.0000000  0.0000000 )
                  ( -1.0000000  0.0000000  0.0000000 )


      isym = 37     inv. 180 deg rotation - cart. axis [0,1,1]   

 cryst.   s(37) = (    -1         -1         -1      )
                  (     0          1          0      )
                  (     0          0          1      )

 cart.    s(37) = (  1.0000000  0.0000000  0.0000000 )
                  (  0.0000000  0.0000000 -1.0000000 )
                  (  0.0000000 -1.0000000  0.0000000 )


      isym = 38     inv. 180 deg rotation - cart. axis [0,1,-1]  

 cryst.   s(38) = (     1          0          0      )
                  (     0          0          1      )
                  (     0          1          0      )

 cart.    s(38) = (  1.0000000  0.0000000  0.0000000 )
                  (  0.0000000  0.0000000  1.0000000 )
                  (  0.0000000  1.0000000  0.0000000 )


      isym = 39     inv.  90 deg rotation - cart. axis [-1,0,0]  

 cryst.   s(39) = (     0          1          0      )
                  (    -1         -1         -1      )
                  (     1          0          0      )

 cart.    s(39) = ( -1.0000000  0.0000000  0.0000000 )
                  (  0.0000000  0.0000000 -1.0000000 )
                  (  0.0000000  1.0000000  0.0000000 )


      isym = 40     inv.  90 deg rotation - cart. axis [1,0,0]   

 cryst.   s(40) = (     0          0          1      )
                  (     1          0          0      )
                  (    -1         -1         -1      )

 cart.    s(40) = ( -1.0000000  0.0000000  0.0000000 )
                  (  0.0000000  0.0000000  1.0000000 )
                  (  0.0000000 -1.0000000  0.0000000 )


      isym = 41     inv. 120 deg rotation - cart. axis [-1,-1,-1]

 cryst.   s(41) = (     0          0         -1      )
                  (    -1          0          0      )
                  (     0         -1          0      )

 cart.    s(41) = (  0.0000000 -1.0000000  0.0000000 )
                  (  0.0000000  0.0000000 -1.0000000 )
                  ( -1.0000000  0.0000000  0.0000000 )


      isym = 42     inv. 120 deg rotation - cart. axis [-1,1,1]  

 cryst.   s(42) = (    -1          0          0      )
                  (     0          0         -1      )
                  (     1          1          1      )

 cart.    s(42) = (  0.0000000  1.0000000  0.0000000 )
                  (  0.0000000  0.0000000 -1.0000000 )
                  (  1.0000000  0.0000000  0.0000000 )


      isym = 43     inv. 120 deg rotation - cart. axis [1,1,-1]  

 cryst.   s(43) = (     0         -1          0      )
                  (     1          1          1      )
                  (     0          0         -1      )

 cart.    s(43) = (  0.0000000 -1.0000000  0.0000000 )
                  (  0.0000000  0.0000000  1.0000000 )
                  (  1.0000000  0.0000000  0.0000000 )


      isym = 44     inv. 120 deg rotation - cart. axis [1,-1,1]  

 cryst.   s(44) = (     1          1          1      )
                  (     0         -1          0      )
                  (    -1          0          0      )

 cart.    s(44) = (  0.0000000  1.0000000  0.0000000 )
                  (  0.0000000  0.0000000  1.0000000 )
                  ( -1.0000000  0.0000000  0.0000000 )


      isym = 45     inv. 120 deg rotation - cart. axis [1,1,1]   

 cryst.   s(45) = (     0         -1          0      )
                  (     0          0         -1      )
                  (    -1          0          0      )

 cart.    s(45) = (  0.0000000  0.0000000 -1.0000000 )
                  ( -1.0000000  0.0000000  0.0000000 )
                  (  0.0000000 -1.0000000  0.0000000 )


      isym = 46     inv. 120 deg rotation - cart. axis [-1,1,-1] 

 cryst.   s(46) = (     0          0         -1      )
                  (     0         -1          0      )
                  (     1          1          1      )

 cart.    s(46) = (  0.0000000  0.0000000 -1.0000000 )
                  (  1.0000000  0.0000000  0.0000000 )
                  (  0.0000000  1.0000000  0.0000000 )


      isym = 47     inv. 120 deg rotation - cart. axis [1,-1,-1] 

 cryst.   s(47) = (    -1          0          0      )
                  (     1          1          1      )
                  (     0         -1          0      )

 cart.    s(47) = (  0.0000000  0.0000000  1.0000000 )
                  (  1.0000000  0.0000000  0.0000000 )
                  (  0.0000000 -1.0000000  0.0000000 )


      isym = 48     inv. 120 deg rotation - cart. axis [-1,-1,1] 

 cryst.   s(48) = (     1          1          1      )
                  (    -1          0          0      )
                  (     0          0         -1      )

 cart.    s(48) = (  0.0000000  0.0000000  1.0000000 )
                  ( -1.0000000  0.0000000  0.0000000 )
                  (  0.0000000  1.0000000  0.0000000 )


   Cartesian axes

     site n.     atom                  positions (alat units)
         1           O   tau(   1) = (   0.0000000   0.0000000   0.0000000  )

   Crystallographic axes

     site n.     atom                  positions (cryst. coord.)
         1           O   tau(   1) = (  0.0000000  0.0000000  0.0000000  )

     number of k points=    50  gaussian smearing, width (Ry)=  0.0010
                       cart. coord. in units 2pi/alat
        k(    1) = (   0.0000000   0.0000000   0.0000000), wk =   0.0400000
        k(    2) = (   0.0000000   0.0618590   0.0000000), wk =   0.0400000
        k(    3) = (   0.0000000   0.1237179   0.0000000), wk =   0.0400000
        k(    4) = (   0.0000000   0.1855769   0.0000000), wk =   0.0400000
        k(    5) = (   0.0000000   0.2474358   0.0000000), wk =   0.0400000
        k(    6) = (   0.0000000   0.3092948   0.0000000), wk =   0.0400000
        k(    7) = (   0.0000000   0.3711537   0.0000000), wk =   0.0400000
        k(    8) = (   0.0000000   0.4330127   0.0000000), wk =   0.0400000
        k(    9) = (   0.0000000   0.4948717   0.0000000), wk =   0.0400000
        k(   10) = (   0.0000000   0.5567306   0.0000000), wk =   0.0400000
        k(   11) = (   0.0000000   0.6185896   0.0000000), wk =   0.0400000
        k(   12) = (   0.0000000   0.6804485   0.0000000), wk =   0.0400000
        k(   13) = (   0.0000000   0.7423075   0.0000000), wk =   0.0400000
        k(   14) = (   0.0000000   0.8041664   0.0000000), wk =   0.0400000
        k(   15) = (   0.0000000   0.8660254   0.0000000), wk =   0.0400000
        k(   16) = (   0.0433013   0.8227241   0.0000000), wk =   0.0400000
        k(   17) = (   0.0866025   0.7794229   0.0000000), wk =   0.0400000
        k(   18) = (   0.1299038   0.7361216   0.0000000), wk =   0.0400000
        k(   19) = (   0.1732051   0.6928203   0.0000000), wk =   0.0400000
        k(   20) = (   0.2165064   0.6495191   0.0000000), wk =   0.0400000
        k(   21) = (   0.2598076   0.6062178   0.0000000), wk =   0.0400000
        k(   22) = (   0.3031089   0.5629165   0.0000000), wk =   0.0400000
        k(   23) = (   0.3464102   0.5196152   0.0000000), wk =   0.0400000
        k(   24) = (   0.3897114   0.4763140   0.0000000), wk =   0.0400000
        k(   25) = (   0.4330127   0.4330127   0.0000000), wk =   0.0400000
        k(   26) = (   0.3936479   0.3936479   0.0000000), wk =   0.0400000
        k(   27) = (   0.3542831   0.3542831   0.0000000), wk =   0.0400000
        k(   28) = (   0.3149183   0.3149183   0.0000000), wk =   0.0400000
        k(   29) = (   0.2755535   0.2755535   0.0000000), wk =   0.0400000
        k(   30) = (   0.2361887   0.2361887   0.0000000), wk =   0.0400000
        k(   31) = (   0.1968240   0.1968240   0.0000000), wk =   0.0400000
        k(   32) = (   0.1574592   0.1574592   0.0000000), wk =   0.0400000
        k(   33) = (   0.1180944   0.1180944   0.0000000), wk =   0.0400000
        k(   34) = (   0.0787296   0.0787296   0.0000000), wk =   0.0400000
        k(   35) = (   0.0393648   0.0393648   0.0000000), wk =   0.0400000
        k(   36) = (   0.0000000   0.0000000   0.0000000), wk =   0.0400000
        k(   37) = (   0.0309295   0.0309295   0.0309295), wk =   0.0400000
        k(   38) = (   0.0618590   0.0618590   0.0618590), wk =   0.0400000
        k(   39) = (   0.0927884   0.0927884   0.0927884), wk =   0.0400000
        k(   40) = (   0.1237179   0.1237179   0.1237179), wk =   0.0400000
        k(   41) = (   0.1546474   0.1546474   0.1546474), wk =   0.0400000
        k(   42) = (   0.1855769   0.1855769   0.1855769), wk =   0.0400000
        k(   43) = (   0.2165064   0.2165064   0.2165064), wk =   0.0400000
        k(   44) = (   0.2474358   0.2474358   0.2474358), wk =   0.0400000
        k(   45) = (   0.2783653   0.2783653   0.2783653), wk =   0.0400000
        k(   46) = (   0.3092948   0.3092948   0.3092948), wk =   0.0400000
        k(   47) = (   0.3402243   0.3402243   0.3402243), wk =   0.0400000
        k(   48) = (   0.3711537   0.3711537   0.3711537), wk =   0.0400000
        k(   49) = (   0.4020832   0.4020832   0.4020832), wk =   0.0400000
        k(   50) = (   0.4330127   0.4330127   0.4330127), wk =   0.0400000

                       cryst. coord.
        k(    1) = (   0.0000000   0.0000000   0.0000000), wk =   0.0400000
        k(    2) = (   0.0357143  -0.0357143   0.0357143), wk =   0.0400000
        k(    3) = (   0.0714286  -0.0714286   0.0714286), wk =   0.0400000
        k(    4) = (   0.1071429  -0.1071429   0.1071429), wk =   0.0400000
        k(    5) = (   0.1428571  -0.1428571   0.1428571), wk =   0.0400000
        k(    6) = (   0.1785714  -0.1785714   0.1785714), wk =   0.0400000
        k(    7) = (   0.2142857  -0.2142857   0.2142857), wk =   0.0400000
        k(    8) = (   0.2500000  -0.2500000   0.2500000), wk =   0.0400000
        k(    9) = (   0.2857143  -0.2857143   0.2857143), wk =   0.0400000
        k(   10) = (   0.3214286  -0.3214286   0.3214286), wk =   0.0400000
        k(   11) = (   0.3571429  -0.3571429   0.3571429), wk =   0.0400000
        k(   12) = (   0.3928571  -0.3928571   0.3928571), wk =   0.0400000
        k(   13) = (   0.4285714  -0.4285714   0.4285714), wk =   0.0400000
        k(   14) = (   0.4642857  -0.4642857   0.4642857), wk =   0.0400000
        k(   15) = (   0.5000000  -0.5000000   0.5000000), wk =   0.0400000
        k(   16) = (   0.4500000  -0.4500000   0.5000000), wk =   0.0400000
        k(   17) = (   0.4000000  -0.4000000   0.5000000), wk =   0.0400000
        k(   18) = (   0.3500000  -0.3500000   0.5000000), wk =   0.0400000
        k(   19) = (   0.3000000  -0.3000000   0.5000000), wk =   0.0400000
        k(   20) = (   0.2500000  -0.2500000   0.5000000), wk =   0.0400000
        k(   21) = (   0.2000000  -0.2000000   0.5000000), wk =   0.0400000
        k(   22) = (   0.1500000  -0.1500000   0.5000000), wk =   0.0400000
        k(   23) = (   0.1000000  -0.1000000   0.5000000), wk =   0.0400000
        k(   24) = (   0.0500000  -0.0500000   0.5000000), wk =   0.0400000
        k(   25) = (   0.0000000   0.0000000   0.5000000), wk =   0.0400000
        k(   26) = (   0.0000000   0.0000000   0.4545455), wk =   0.0400000
        k(   27) = (   0.0000000   0.0000000   0.4090909), wk =   0.0400000
        k(   28) = (   0.0000000   0.0000000   0.3636364), wk =   0.0400000
        k(   29) = (   0.0000000   0.0000000   0.3181818), wk =   0.0400000
        k(   30) = (   0.0000000   0.0000000   0.2727273), wk =   0.0400000
        k(   31) = (   0.0000000   0.0000000   0.2272727), wk =   0.0400000
        k(   32) = (   0.0000000   0.0000000   0.1818182), wk =   0.0400000
        k(   33) = (   0.0000000   0.0000000   0.1363636), wk =   0.0400000
        k(   34) = (   0.0000000   0.0000000   0.0909091), wk =   0.0400000
        k(   35) = (   0.0000000   0.0000000   0.0454545), wk =   0.0400000
        k(   36) = (   0.0000000   0.0000000   0.0000000), wk =   0.0400000
        k(   37) = (   0.0178571   0.0178571   0.0178571), wk =   0.0400000
        k(   38) = (   0.0357143   0.0357143   0.0357143), wk =   0.0400000
        k(   39) = (   0.0535714   0.0535714   0.0535714), wk =   0.0400000
        k(   40) = (   0.0714286   0.0714286   0.0714286), wk =   0.0400000
        k(   41) = (   0.0892857   0.0892857   0.0892857), wk =   0.0400000
        k(   42) = (   0.1071429   0.1071429   0.1071429), wk =   0.0400000
        k(   43) = (   0.1250000   0.1250000   0.1250000), wk =   0.0400000
        k(   44) = (   0.1428571   0.1428571   0.1428571), wk =   0.0400000
        k(   45) = (   0.1607143   0.1607143   0.1607143), wk =   0.0400000
        k(   46) = (   0.1785714   0.1785714   0.1785714), wk =   0.0400000
        k(   47) = (   0.1964286   0.1964286   0.1964286), wk =   0.0400000
        k(   48) = (   0.2142857   0.2142857   0.2142857), wk =   0.0400000
        k(   49) = (   0.2321429   0.2321429   0.2321429), wk =   0.0400000
        k(   50) = (   0.2500000   0.2500000   0.2500000), wk =   0.0400000

     Dense  grid:     2491 G-vectors     FFT dimensions: (  20,  20,  20)

     Smooth grid:     1865 G-vectors     FFT dimensions: (  18,  18,  18)

     Estimated max dynamical RAM per process >       2.32Mb

     Check: negative/imaginary core charge=   -0.000006    0.000000

     The potential is recalculated from file :
     ./pwscf.save/charge-density.dat

     Starting wfc are    4 randomized atomic wfcs +    3 random wfc

     Band Structure Calculation
     Davidson diagonalization with overlap

     Computing kpt #:     1
     total cpu time spent up to now is        0.5 secs

     Computing kpt #:     2
     total cpu time spent up to now is        0.5 secs

     Computing kpt #:     3
     total cpu time spent up to now is        0.6 secs

     Computing kpt #:     4
     total cpu time spent up to now is        0.6 secs

     Computing kpt #:     5
     total cpu time spent up to now is        0.7 secs

     Computing kpt #:     6
     total cpu time spent up to now is        0.7 secs

     Computing kpt #:     7
     total cpu time spent up to now is        0.8 secs

     Computing kpt #:     8
     total cpu time spent up to now is        0.8 secs

     Computing kpt #:     9
     total cpu time spent up to now is        0.9 secs

     Computing kpt #:    10
     total cpu time spent up to now is        0.9 secs

     Computing kpt #:    11
     total cpu time spent up to now is        1.0 secs

     Computing kpt #:    12
     total cpu time spent up to now is        1.0 secs

     Computing kpt #:    13
     total cpu time spent up to now is        1.1 secs

     Computing kpt #:    14
     total cpu time spent up to now is        1.1 secs

     Computing kpt #:    15
     total cpu time spent up to now is        1.2 secs

     Computing kpt #:    16
     total cpu time spent up to now is        1.3 secs

     Computing kpt #:    17
     total cpu time spent up to now is        1.3 secs

     Computing kpt #:    18
     total cpu time spent up to now is        1.4 secs

     Computing kpt #:    19
     total cpu time spent up to now is        1.4 secs

     Computing kpt #:    20
     total cpu time spent up to now is        1.5 secs

     Computing kpt #:    21
     total cpu time spent up to now is        1.6 secs

     Computing kpt #:    22
     total cpu time spent up to now is        1.6 secs

     Computing kpt #:    23
     total cpu time spent up to now is        1.6 secs

     Computing kpt #:    24
     total cpu time spent up to now is        1.7 secs

     Computing kpt #:    25
     total cpu time spent up to now is        1.7 secs

     Computing kpt #:    26
     total cpu time spent up to now is        1.8 secs

     Computing kpt #:    27
     total cpu time spent up to now is        1.8 secs

     Computing kpt #:    28
     total cpu time spent up to now is        1.9 secs

     Computing kpt #:    29
     total cpu time spent up to now is        1.9 secs

     Computing kpt #:    30
     total cpu time spent up to now is        2.0 secs

     Computing kpt #:    31
     total cpu time spent up to now is        2.1 secs

     Computing kpt #:    32
     total cpu time spent up to now is        2.1 secs

     Computing kpt #:    33
     total cpu time spent up to now is        2.2 secs

     Computing kpt #:    34
     total cpu time spent up to now is        2.2 secs

     Computing kpt #:    35
     total cpu time spent up to now is        2.3 secs

     Computing kpt #:    36
     total cpu time spent up to now is        2.4 secs

     Computing kpt #:    37
     total cpu time spent up to now is        2.4 secs

     Computing kpt #:    38
     total cpu time spent up to now is        2.5 secs

     Computing kpt #:    39
     total cpu time spent up to now is        2.5 secs

     Computing kpt #:    40
     total cpu time spent up to now is        2.6 secs

     Computing kpt #:    41
     total cpu time spent up to now is        2.6 secs

     Computing kpt #:    42
     total cpu time spent up to now is        2.7 secs

     Computing kpt #:    43
     total cpu time spent up to now is        2.7 secs

     Computing kpt #:    44
     total cpu time spent up to now is        2.8 secs

     Computing kpt #:    45
     total cpu time spent up to now is        2.8 secs

     Computing kpt #:    46
     total cpu time spent up to now is        2.9 secs

     Computing kpt #:    47
     total cpu time spent up to now is        2.9 secs

     Computing kpt #:    48
     total cpu time spent up to now is        3.0 secs

     Computing kpt #:    49
     total cpu time spent up to now is        3.0 secs

     Computing kpt #:    50
     total cpu time spent up to now is        3.1 secs

     ethr =  1.67E-09,  avg # of iterations = 11.3

     total cpu time spent up to now is        3.1 secs

     End of band structure calculation

          k = 0.0000 0.0000 0.0000 (   225 PWs)   bands (ev):

   -16.1028   7.1057   7.1057   7.1057  23.9946  41.4447  41.4447

          k = 0.0000 0.0619 0.0000 (   225 PWs)   bands (ev):

   -16.0231   6.9523   7.0475   7.0475  24.1416  40.8602  40.8602

          k = 0.0000 0.1237 0.0000 (   213 PWs)   bands (ev):

   -15.7859   6.5205   6.8745   6.8745  24.5526  39.7120  39.7120

          k = 0.0000 0.1856 0.0000 (   217 PWs)   bands (ev):

   -15.3969   5.8817   6.5923   6.5923  25.1516  37.4167  38.6199

          k = 0.0000 0.2474 0.0000 (   217 PWs)   bands (ev):

   -14.8662   5.1236   6.2119   6.2119  25.8432  34.8775  37.7981

          k = 0.0000 0.3093 0.0000 (   217 PWs)   bands (ev):

   -14.2097   4.3289   5.7506   5.7506  26.5292  32.5736  37.3080

          k = 0.0000 0.3712 0.0000 (   225 PWs)   bands (ev):

   -13.4501   3.5681   5.2319   5.2319  27.1090  30.5090  37.1552

          k = 0.0000 0.4330 0.0000 (   233 PWs)   bands (ev):

   -12.6191   2.8996   4.6842   4.6842  27.4680  28.6857  37.3172

          k = 0.0000 0.4949 0.0000 (   225 PWs)   bands (ev):

   -11.7590   2.3714   4.1378   4.1378  27.1049  27.4758  37.7526

          k = 0.0000 0.5567 0.0000 (   233 PWs)   bands (ev):

   -10.9225   2.0202   3.6218   3.6218  25.7663  27.0250  38.4034

          k = 0.0000 0.6186 0.0000 (   229 PWs)   bands (ev):

   -10.1680   1.8648   3.1629   3.1629  24.6713  26.1260  39.1944

          k = 0.0000 0.6804 0.0000 (   228 PWs)   bands (ev):

    -9.5489   1.8909   2.7832   2.7832  23.8195  24.9656  40.0281

          k = 0.0000 0.7423 0.0000 (   236 PWs)   bands (ev):

    -9.1001   2.0365   2.4998   2.4998  23.2109  23.8351  40.7822

          k = 0.0000 0.8042 0.0000 (   236 PWs)   bands (ev):

    -8.8332   2.1970   2.3249   2.3249  22.8458  23.0205  41.3179

          k = 0.0000 0.8660 0.0000 (   236 PWs)   bands (ev):

    -8.7454   2.2658   2.2658   2.2658  22.7241  22.7241  41.5133

          k = 0.0433 0.8227 0.0000 (   236 PWs)   bands (ev):

    -8.8297   2.1429   2.3236   2.3761  22.8862  22.9734  41.1968

          k = 0.0866 0.7794 0.0000 (   236 PWs)   bands (ev):

    -9.0662   1.7996   2.4938   2.6918  23.3525  23.6854  40.3535

          k = 0.1299 0.7361 0.0000 (   232 PWs)   bands (ev):

    -9.4132   1.3000   2.7663   3.1743  24.0579  24.7645  39.2416

          k = 0.1732 0.6928 0.0000 (   230 PWs)   bands (ev):

    -9.8196   0.7207   3.1235   3.7738  24.8744  26.0790  38.1803

          k = 0.2165 0.6495 0.0000 (   222 PWs)   bands (ev):

   -10.2370   0.1318   3.5397   4.4389  25.5954  27.4826  37.0536

          k = 0.2598 0.6062 0.0000 (   222 PWs)   bands (ev):

   -10.6257  -0.4116   3.9798   5.1161  25.9815  28.8292  35.5985

          k = 0.3031 0.5629 0.0000 (   222 PWs)   bands (ev):

   -10.9557  -0.8691   4.4004   5.7481  25.9444  29.9914  34.2851

          k = 0.3464 0.5196 0.0000 (   228 PWs)   bands (ev):

   -11.2055  -1.2133   4.7526   6.2712  25.6484  30.8735  33.2442

          k = 0.3897 0.4763 0.0000 (   224 PWs)   bands (ev):

   -11.3607  -1.4263   4.9883   6.6205  25.3491  31.4196  32.5766

          k = 0.4330 0.4330 0.0000 (   234 PWs)   bands (ev):

   -11.4133  -1.4984   5.0713   6.7437  25.2284  31.6039  32.3463

          k = 0.3936 0.3936 0.0000 (   224 PWs)   bands (ev):

   -11.5737  -1.2713   5.1080   6.7517  25.3240  31.5387  32.4420

          k = 0.3543 0.3543 0.0000 (   228 PWs)   bands (ev):

   -12.0071  -0.6415   5.2157   6.7745  25.5903  31.3761  32.7283

          k = 0.3149 0.3149 0.0000 (   220 PWs)   bands (ev):

   -12.6098   0.2767   5.3884   6.8101  25.9533  31.2263  33.2044

          k = 0.2756 0.2756 0.0000 (   221 PWs)   bands (ev):

   -13.2815   1.3658   5.6156   6.8552  26.2537  31.2967  33.8679

          k = 0.2362 0.2362 0.0000 (   223 PWs)   bands (ev):

   -13.9495   2.5291   5.8825   6.9057  26.2878  31.8451  34.7151

          k = 0.1968 0.1968 0.0000 (   223 PWs)   bands (ev):

   -14.5658   3.6878   6.1702   6.9572  25.9943  32.9843  35.7389

          k = 0.1575 0.1575 0.0000 (   223 PWs)   bands (ev):

   -15.0994   4.7732   6.4563   7.0056  25.4945  34.6363  36.9257

          k = 0.1181 0.1181 0.0000 (   223 PWs)   bands (ev):

   -15.5304   5.7200   6.7158   7.0472  24.9397  36.6724  38.2461

          k = 0.0787 0.0787 0.0000 (   219 PWs)   bands (ev):

   -15.8460   6.4630   6.9239   7.0790  24.4494  38.9123  39.6285

          k = 0.0394 0.0394 0.0000 (   225 PWs)   bands (ev):

   -16.0382   6.9405   7.0589   7.0989  24.1139  40.8164  40.8709

          k = 0.0000 0.0000 0.0000 (   225 PWs)   bands (ev):

   -16.1028   7.1057   7.1057   7.1057  23.9946  41.4447  41.4447

          k = 0.0309 0.0309 0.0309 (   225 PWs)   bands (ev):

   -16.0430   6.9410   7.0867   7.0867  24.1052  40.8603  40.8603

          k = 0.0619 0.0619 0.0619 (   219 PWs)   bands (ev):

   -15.8649   6.4723   7.0274   7.0274  24.4182  39.2749  39.2749

          k = 0.0928 0.0928 0.0928 (   222 PWs)   bands (ev):

   -15.5723   5.7641   6.9213   6.9213  24.8881  37.3800  37.3800

          k = 0.1237 0.1237 0.1237 (   216 PWs)   bands (ev):

   -15.1722   4.8987   6.7588   6.7588  25.4637  35.5833  35.5833

          k = 0.1546 0.1546 0.1546 (   216 PWs)   bands (ev):

   -14.6753   3.9573   6.5296   6.5296  26.1026  34.0137  34.0137

          k = 0.1856 0.1856 0.1856 (   216 PWs)   bands (ev):

   -14.0976   3.0131   6.2256   6.2256  26.7746  32.7149  32.7149

          k = 0.2165 0.2165 0.2165 (   222 PWs)   bands (ev):

   -13.4622   2.1317   5.8440   5.8440  27.4568  31.6979  31.6979

          k = 0.2474 0.2474 0.2474 (   222 PWs)   bands (ev):

   -12.8013   1.3750   5.3897   5.3897  28.1289  30.9538  30.9538

          k = 0.2784 0.2784 0.2784 (   234 PWs)   bands (ev):

   -12.1576   0.8043   4.8748   4.8748  28.7664  30.4576  30.4576

          k = 0.3093 0.3093 0.3093 (   228 PWs)   bands (ev):

   -11.5824   0.4800   4.3192   4.3192  29.3383  30.1727  30.1727

          k = 0.3402 0.3402 0.3402 (   228 PWs)   bands (ev):

   -11.1259   0.4521   3.7461   3.7461  29.8050  30.0532  30.0532

          k = 0.3712 0.3712 0.3712 (   228 PWs)   bands (ev):

   -10.8197   0.7435   3.1799   3.1799  30.0498  30.0498  30.1230

          k = 0.4021 0.4021 0.4021 (   228 PWs)   bands (ev):

   -10.6619   1.3335   2.6437   2.6437  30.1125  30.1125  30.2560

          k = 0.4330 0.4330 0.4330 (   216 PWs)   bands (ev):

   -10.6197   2.1574   2.1574   2.1574  30.1942  30.1942  30.1942

     Writing output data file pwscf.save

     init_run     :      0.47s CPU      0.28s WALL (       1 calls)
     electrons    :      5.53s CPU      2.63s WALL (       1 calls)

     Called by init_run:
     wfcinit      :      0.00s CPU      0.00s WALL (       1 calls)
     wfcinit:atom :      0.00s CPU      0.00s WALL (      50 calls)
     wfcinit:wfcr :      0.25s CPU      0.24s WALL (      50 calls)
     potinit      :      0.02s CPU      0.01s WALL (       1 calls)

     Called by electrons:
     c_bands      :      5.53s CPU      2.63s WALL (       1 calls)
     v_of_rho     :      0.02s CPU      0.01s WALL (       1 calls)
     v_h          :      0.00s CPU      0.00s WALL (       1 calls)
     v_xc         :      0.02s CPU      0.01s WALL (       1 calls)
     newd         :      0.02s CPU      0.01s WALL (       1 calls)

     Called by c_bands:
     init_us_2    :      0.00s CPU      0.01s WALL (      50 calls)
     cegterg      :      5.19s CPU      2.32s WALL (      51 calls)

     Called by sum_band:

     Called by *egterg:
     h_psi        :      4.11s CPU      1.91s WALL (     666 calls)
     s_psi        :      0.08s CPU      0.02s WALL (     666 calls)
     g_psi        :      0.03s CPU      0.01s WALL (     565 calls)
     cdiaghg      :      0.97s CPU      0.45s WALL (     615 calls)
     cegterg:over :      0.02s CPU      0.04s WALL (     565 calls)
     cegterg:upda :      0.11s CPU      0.04s WALL (     565 calls)
     cegterg:last :      0.05s CPU      0.02s WALL (     141 calls)

     Called by h_psi:
     h_psi:pot    :      4.06s CPU      1.90s WALL (     666 calls)
     h_psi:calbec :      0.05s CPU      0.03s WALL (     666 calls)
     vloc_psi     :      3.97s CPU      1.82s WALL (     666 calls)
     add_vuspsi   :      0.00s CPU      0.03s WALL (     666 calls)

     General routines
     calbec       :      0.02s CPU      0.02s WALL (     666 calls)
     fft          :      0.00s CPU      0.00s WALL (      13 calls)
     ffts         :      0.00s CPU      0.00s WALL (       1 calls)
     fftw         :      3.70s CPU      1.69s WALL (    5990 calls)
     interpolate  :      0.00s CPU      0.00s WALL (       1 calls)
     davcio       :      0.00s CPU      0.00s WALL (      50 calls)

     Parallel routines
     fft_scatter  :      0.14s CPU      0.08s WALL (    6004 calls)

     PWSCF        :     6.42s CPU         3.33s WALL


   This run was terminated on:  11:14:43  25Feb2021            

=------------------------------------------------------------------------------=
   JOB DONE.
=------------------------------------------------------------------------------=
