
     Program PWSCF v.6.0 (svn rev. 13079) starts on 25Feb2021 at 20:38:50 

     This program is part of the open-source Quantum ESPRESSO suite
     for quantum simulation of materials; please cite
         "P. Giannozzi et al., J. Phys.:Condens. Matter 21 395502 (2009);
          URL http://www.quantum-espresso.org", 
     in publications or presentations arising from this work. More details at
     http://www.quantum-espresso.org/quote

     Parallel version (MPI), running on     1 processors
     Reading input from espresso.pwi
Warning: card &IONS ignored
Warning: card / ignored
Warning: card &CELL ignored
Warning: card / ignored

     Current dimensions of program PWSCF are:
     Max number of different atomic species (ntypx) = 10
     Max number of k-points (npk) =  40000
     Max angular momentum in pseudopotentials (lmaxx) =  3
     Message from routine input:
     WARNING: "startingwfc" set to atomic+random may spoil restart

     Atomic positions and unit cell read from directory:
     ./pwscf.save/


     IMPORTANT: XC functional enforced from input :
     Exchange-correlation      = PBE ( 1  4  3  4 0 0)
     Any further DFT definition will be discarded
     Please, verify this is what you really want


     Subspace diagonalization in iterative solution of the eigenvalue problem:
     a serial algorithm will be used


     G-vector sticks info
     --------------------
     sticks:   dense  smooth     PW     G-vecs:    dense   smooth      PW
     Sum         579     471    155                 8853     6459    1205



     bravais-lattice index     =            0
     lattice parameter (alat)  =       6.2467  a.u.
     unit-cell volume          =     187.6433 (a.u.)^3
     number of atoms/cell      =            1
     number of atomic types    =            1
     number of electrons       =        13.00
     number of Kohn-Sham states=           11
     kinetic-energy cutoff     =      40.0000  Ry
     charge density cutoff     =     200.0000  Ry
     Exchange-correlation      = PBE ( 1  4  3  4 0 0)

     celldm(1)=   6.246715  celldm(2)=   0.000000  celldm(3)=   0.000000
     celldm(4)=   0.000000  celldm(5)=   0.000000  celldm(6)=   0.000000

     crystal axes: (cart. coord. in units of alat)
               a(1) = (  -0.577350   0.577350   0.577350 )  
               a(2) = (   0.577350  -0.577350   0.577350 )  
               a(3) = (   0.577350   0.577350  -0.577350 )  

     reciprocal axes: (cart. coord. in units 2 pi/alat)
               b(1) = (  0.000000  0.866025  0.866025 )  
               b(2) = (  0.866025  0.000000  0.866025 )  
               b(3) = (  0.866025  0.866025  0.000000 )  


     PseudoPot. # 1 for In read from file:
     /home/inukai/tango/tests/1element/qe_fit_v2_In/../pseudo/in_pbe_v1.4.uspp.F.UPF
     MD5 check sum: 90777abd96fbb83f2e67db2a40c566b9
     Pseudo is Ultrasoft + core correction, Zval = 13.0
     Generated by new atomic code, or converted to UPF format
     Using radial grid of  889 points,  6 beta functions with: 
                l(1) =   0
                l(2) =   0
                l(3) =   1
                l(4) =   1
                l(5) =   2
                l(6) =   2
     Q(r) pseudized with  6 coefficients,  rinner =    1.400   1.400   1.400
                                                       1.400   1.400

     atomic species   valence    mass     pseudopotential
        In            13.00   114.81800     In( 1.00)

     48 Sym. Ops., with inversion, found


                                    s                        frac. trans.

      isym =  1     identity                                     

 cryst.   s( 1) = (     1          0          0      )
                  (     0          1          0      )
                  (     0          0          1      )

 cart.    s( 1) = (  1.0000000  0.0000000  0.0000000 )
                  (  0.0000000  1.0000000  0.0000000 )
                  (  0.0000000  0.0000000  1.0000000 )


      isym =  2     180 deg rotation - cart. axis [0,0,1]        

 cryst.   s( 2) = (     0          1          0      )
                  (     1          0          0      )
                  (    -1         -1         -1      )

 cart.    s( 2) = ( -1.0000000  0.0000000  0.0000000 )
                  (  0.0000000 -1.0000000  0.0000000 )
                  (  0.0000000  0.0000000  1.0000000 )


      isym =  3     180 deg rotation - cart. axis [0,1,0]        

 cryst.   s( 3) = (     0          0          1      )
                  (    -1         -1         -1      )
                  (     1          0          0      )

 cart.    s( 3) = ( -1.0000000  0.0000000  0.0000000 )
                  (  0.0000000  1.0000000  0.0000000 )
                  (  0.0000000  0.0000000 -1.0000000 )


      isym =  4     180 deg rotation - cart. axis [1,0,0]        

 cryst.   s( 4) = (    -1         -1         -1      )
                  (     0          0          1      )
                  (     0          1          0      )

 cart.    s( 4) = (  1.0000000  0.0000000  0.0000000 )
                  (  0.0000000 -1.0000000  0.0000000 )
                  (  0.0000000  0.0000000 -1.0000000 )


      isym =  5     180 deg rotation - cart. axis [1,1,0]        

 cryst.   s( 5) = (    -1          0          0      )
                  (     0         -1          0      )
                  (     1          1          1      )

 cart.    s( 5) = (  0.0000000  1.0000000  0.0000000 )
                  (  1.0000000  0.0000000  0.0000000 )
                  (  0.0000000  0.0000000 -1.0000000 )


      isym =  6     180 deg rotation - cart. axis [1,-1,0]       

 cryst.   s( 6) = (     0         -1          0      )
                  (    -1          0          0      )
                  (     0          0         -1      )

 cart.    s( 6) = (  0.0000000 -1.0000000  0.0000000 )
                  ( -1.0000000  0.0000000  0.0000000 )
                  (  0.0000000  0.0000000 -1.0000000 )


      isym =  7      90 deg rotation - cart. axis [0,0,-1]       

 cryst.   s( 7) = (     1          1          1      )
                  (     0          0         -1      )
                  (    -1          0          0      )

 cart.    s( 7) = (  0.0000000  1.0000000  0.0000000 )
                  ( -1.0000000  0.0000000  0.0000000 )
                  (  0.0000000  0.0000000  1.0000000 )


      isym =  8      90 deg rotation - cart. axis [0,0,1]        

 cryst.   s( 8) = (     0          0         -1      )
                  (     1          1          1      )
                  (     0         -1          0      )

 cart.    s( 8) = (  0.0000000 -1.0000000  0.0000000 )
                  (  1.0000000  0.0000000  0.0000000 )
                  (  0.0000000  0.0000000  1.0000000 )


      isym =  9     180 deg rotation - cart. axis [1,0,1]        

 cryst.   s( 9) = (    -1          0          0      )
                  (     1          1          1      )
                  (     0          0         -1      )

 cart.    s( 9) = (  0.0000000  0.0000000  1.0000000 )
                  (  0.0000000 -1.0000000  0.0000000 )
                  (  1.0000000  0.0000000  0.0000000 )


      isym = 10     180 deg rotation - cart. axis [-1,0,1]       

 cryst.   s(10) = (     0          0         -1      )
                  (     0         -1          0      )
                  (    -1          0          0      )

 cart.    s(10) = (  0.0000000  0.0000000 -1.0000000 )
                  (  0.0000000 -1.0000000  0.0000000 )
                  ( -1.0000000  0.0000000  0.0000000 )


      isym = 11      90 deg rotation - cart. axis [0,1,0]        

 cryst.   s(11) = (     1          1          1      )
                  (    -1          0          0      )
                  (     0         -1          0      )

 cart.    s(11) = (  0.0000000  0.0000000  1.0000000 )
                  (  0.0000000  1.0000000  0.0000000 )
                  ( -1.0000000  0.0000000  0.0000000 )


      isym = 12      90 deg rotation - cart. axis [0,-1,0]       

 cryst.   s(12) = (     0         -1          0      )
                  (     0          0         -1      )
                  (     1          1          1      )

 cart.    s(12) = (  0.0000000  0.0000000 -1.0000000 )
                  (  0.0000000  1.0000000  0.0000000 )
                  (  1.0000000  0.0000000  0.0000000 )


      isym = 13     180 deg rotation - cart. axis [0,1,1]        

 cryst.   s(13) = (     1          1          1      )
                  (     0         -1          0      )
                  (     0          0         -1      )

 cart.    s(13) = ( -1.0000000  0.0000000  0.0000000 )
                  (  0.0000000  0.0000000  1.0000000 )
                  (  0.0000000  1.0000000  0.0000000 )


      isym = 14     180 deg rotation - cart. axis [0,1,-1]       

 cryst.   s(14) = (    -1          0          0      )
                  (     0          0         -1      )
                  (     0         -1          0      )

 cart.    s(14) = ( -1.0000000  0.0000000  0.0000000 )
                  (  0.0000000  0.0000000 -1.0000000 )
                  (  0.0000000 -1.0000000  0.0000000 )


      isym = 15      90 deg rotation - cart. axis [-1,0,0]       

 cryst.   s(15) = (     0         -1          0      )
                  (     1          1          1      )
                  (    -1          0          0      )

 cart.    s(15) = (  1.0000000  0.0000000  0.0000000 )
                  (  0.0000000  0.0000000  1.0000000 )
                  (  0.0000000 -1.0000000  0.0000000 )


      isym = 16      90 deg rotation - cart. axis [1,0,0]        

 cryst.   s(16) = (     0          0         -1      )
                  (    -1          0          0      )
                  (     1          1          1      )

 cart.    s(16) = (  1.0000000  0.0000000  0.0000000 )
                  (  0.0000000  0.0000000 -1.0000000 )
                  (  0.0000000  1.0000000  0.0000000 )


      isym = 17     120 deg rotation - cart. axis [-1,-1,-1]     

 cryst.   s(17) = (     0          0          1      )
                  (     1          0          0      )
                  (     0          1          0      )

 cart.    s(17) = (  0.0000000  1.0000000  0.0000000 )
                  (  0.0000000  0.0000000  1.0000000 )
                  (  1.0000000  0.0000000  0.0000000 )


      isym = 18     120 deg rotation - cart. axis [-1,1,1]       

 cryst.   s(18) = (     1          0          0      )
                  (     0          0          1      )
                  (    -1         -1         -1      )

 cart.    s(18) = (  0.0000000 -1.0000000  0.0000000 )
                  (  0.0000000  0.0000000  1.0000000 )
                  ( -1.0000000  0.0000000  0.0000000 )


      isym = 19     120 deg rotation - cart. axis [1,1,-1]       

 cryst.   s(19) = (     0          1          0      )
                  (    -1         -1         -1      )
                  (     0          0          1      )

 cart.    s(19) = (  0.0000000  1.0000000  0.0000000 )
                  (  0.0000000  0.0000000 -1.0000000 )
                  ( -1.0000000  0.0000000  0.0000000 )


      isym = 20     120 deg rotation - cart. axis [1,-1,1]       

 cryst.   s(20) = (    -1         -1         -1      )
                  (     0          1          0      )
                  (     1          0          0      )

 cart.    s(20) = (  0.0000000 -1.0000000  0.0000000 )
                  (  0.0000000  0.0000000 -1.0000000 )
                  (  1.0000000  0.0000000  0.0000000 )


      isym = 21     120 deg rotation - cart. axis [1,1,1]        

 cryst.   s(21) = (     0          1          0      )
                  (     0          0          1      )
                  (     1          0          0      )

 cart.    s(21) = (  0.0000000  0.0000000  1.0000000 )
                  (  1.0000000  0.0000000  0.0000000 )
                  (  0.0000000  1.0000000  0.0000000 )


      isym = 22     120 deg rotation - cart. axis [-1,1,-1]      

 cryst.   s(22) = (     0          0          1      )
                  (     0          1          0      )
                  (    -1         -1         -1      )

 cart.    s(22) = (  0.0000000  0.0000000  1.0000000 )
                  ( -1.0000000  0.0000000  0.0000000 )
                  (  0.0000000 -1.0000000  0.0000000 )


      isym = 23     120 deg rotation - cart. axis [1,-1,-1]      

 cryst.   s(23) = (     1          0          0      )
                  (    -1         -1         -1      )
                  (     0          1          0      )

 cart.    s(23) = (  0.0000000  0.0000000 -1.0000000 )
                  ( -1.0000000  0.0000000  0.0000000 )
                  (  0.0000000  1.0000000  0.0000000 )


      isym = 24     120 deg rotation - cart. axis [-1,-1,1]      

 cryst.   s(24) = (    -1         -1         -1      )
                  (     1          0          0      )
                  (     0          0          1      )

 cart.    s(24) = (  0.0000000  0.0000000 -1.0000000 )
                  (  1.0000000  0.0000000  0.0000000 )
                  (  0.0000000 -1.0000000  0.0000000 )


      isym = 25     inversion                                    

 cryst.   s(25) = (    -1          0          0      )
                  (     0         -1          0      )
                  (     0          0         -1      )

 cart.    s(25) = ( -1.0000000  0.0000000  0.0000000 )
                  (  0.0000000 -1.0000000  0.0000000 )
                  (  0.0000000  0.0000000 -1.0000000 )


      isym = 26     inv. 180 deg rotation - cart. axis [0,0,1]   

 cryst.   s(26) = (     0         -1          0      )
                  (    -1          0          0      )
                  (     1          1          1      )

 cart.    s(26) = (  1.0000000  0.0000000  0.0000000 )
                  (  0.0000000  1.0000000  0.0000000 )
                  (  0.0000000  0.0000000 -1.0000000 )


      isym = 27     inv. 180 deg rotation - cart. axis [0,1,0]   

 cryst.   s(27) = (     0          0         -1      )
                  (     1          1          1      )
                  (    -1          0          0      )

 cart.    s(27) = (  1.0000000  0.0000000  0.0000000 )
                  (  0.0000000 -1.0000000  0.0000000 )
                  (  0.0000000  0.0000000  1.0000000 )


      isym = 28     inv. 180 deg rotation - cart. axis [1,0,0]   

 cryst.   s(28) = (     1          1          1      )
                  (     0          0         -1      )
                  (     0         -1          0      )

 cart.    s(28) = ( -1.0000000  0.0000000  0.0000000 )
                  (  0.0000000  1.0000000  0.0000000 )
                  (  0.0000000  0.0000000  1.0000000 )


      isym = 29     inv. 180 deg rotation - cart. axis [1,1,0]   

 cryst.   s(29) = (     1          0          0      )
                  (     0          1          0      )
                  (    -1         -1         -1      )

 cart.    s(29) = (  0.0000000 -1.0000000  0.0000000 )
                  ( -1.0000000  0.0000000  0.0000000 )
                  (  0.0000000  0.0000000  1.0000000 )


      isym = 30     inv. 180 deg rotation - cart. axis [1,-1,0]  

 cryst.   s(30) = (     0          1          0      )
                  (     1          0          0      )
                  (     0          0          1      )

 cart.    s(30) = (  0.0000000  1.0000000  0.0000000 )
                  (  1.0000000  0.0000000  0.0000000 )
                  (  0.0000000  0.0000000  1.0000000 )


      isym = 31     inv.  90 deg rotation - cart. axis [0,0,-1]  

 cryst.   s(31) = (    -1         -1         -1      )
                  (     0          0          1      )
                  (     1          0          0      )

 cart.    s(31) = (  0.0000000 -1.0000000  0.0000000 )
                  (  1.0000000  0.0000000  0.0000000 )
                  (  0.0000000  0.0000000 -1.0000000 )


      isym = 32     inv.  90 deg rotation - cart. axis [0,0,1]   

 cryst.   s(32) = (     0          0          1      )
                  (    -1         -1         -1      )
                  (     0          1          0      )

 cart.    s(32) = (  0.0000000  1.0000000  0.0000000 )
                  ( -1.0000000  0.0000000  0.0000000 )
                  (  0.0000000  0.0000000 -1.0000000 )


      isym = 33     inv. 180 deg rotation - cart. axis [1,0,1]   

 cryst.   s(33) = (     1          0          0      )
                  (    -1         -1         -1      )
                  (     0          0          1      )

 cart.    s(33) = (  0.0000000  0.0000000 -1.0000000 )
                  (  0.0000000  1.0000000  0.0000000 )
                  ( -1.0000000  0.0000000  0.0000000 )


      isym = 34     inv. 180 deg rotation - cart. axis [-1,0,1]  

 cryst.   s(34) = (     0          0          1      )
                  (     0          1          0      )
                  (     1          0          0      )

 cart.    s(34) = (  0.0000000  0.0000000  1.0000000 )
                  (  0.0000000  1.0000000  0.0000000 )
                  (  1.0000000  0.0000000  0.0000000 )


      isym = 35     inv.  90 deg rotation - cart. axis [0,1,0]   

 cryst.   s(35) = (    -1         -1         -1      )
                  (     1          0          0      )
                  (     0          1          0      )

 cart.    s(35) = (  0.0000000  0.0000000 -1.0000000 )
                  (  0.0000000 -1.0000000  0.0000000 )
                  (  1.0000000  0.0000000  0.0000000 )


      isym = 36     inv.  90 deg rotation - cart. axis [0,-1,0]  

 cryst.   s(36) = (     0          1          0      )
                  (     0          0          1      )
                  (    -1         -1         -1      )

 cart.    s(36) = (  0.0000000  0.0000000  1.0000000 )
                  (  0.0000000 -1.0000000  0.0000000 )
                  ( -1.0000000  0.0000000  0.0000000 )


      isym = 37     inv. 180 deg rotation - cart. axis [0,1,1]   

 cryst.   s(37) = (    -1         -1         -1      )
                  (     0          1          0      )
                  (     0          0          1      )

 cart.    s(37) = (  1.0000000  0.0000000  0.0000000 )
                  (  0.0000000  0.0000000 -1.0000000 )
                  (  0.0000000 -1.0000000  0.0000000 )


      isym = 38     inv. 180 deg rotation - cart. axis [0,1,-1]  

 cryst.   s(38) = (     1          0          0      )
                  (     0          0          1      )
                  (     0          1          0      )

 cart.    s(38) = (  1.0000000  0.0000000  0.0000000 )
                  (  0.0000000  0.0000000  1.0000000 )
                  (  0.0000000  1.0000000  0.0000000 )


      isym = 39     inv.  90 deg rotation - cart. axis [-1,0,0]  

 cryst.   s(39) = (     0          1          0      )
                  (    -1         -1         -1      )
                  (     1          0          0      )

 cart.    s(39) = ( -1.0000000  0.0000000  0.0000000 )
                  (  0.0000000  0.0000000 -1.0000000 )
                  (  0.0000000  1.0000000  0.0000000 )


      isym = 40     inv.  90 deg rotation - cart. axis [1,0,0]   

 cryst.   s(40) = (     0          0          1      )
                  (     1          0          0      )
                  (    -1         -1         -1      )

 cart.    s(40) = ( -1.0000000  0.0000000  0.0000000 )
                  (  0.0000000  0.0000000  1.0000000 )
                  (  0.0000000 -1.0000000  0.0000000 )


      isym = 41     inv. 120 deg rotation - cart. axis [-1,-1,-1]

 cryst.   s(41) = (     0          0         -1      )
                  (    -1          0          0      )
                  (     0         -1          0      )

 cart.    s(41) = (  0.0000000 -1.0000000  0.0000000 )
                  (  0.0000000  0.0000000 -1.0000000 )
                  ( -1.0000000  0.0000000  0.0000000 )


      isym = 42     inv. 120 deg rotation - cart. axis [-1,1,1]  

 cryst.   s(42) = (    -1          0          0      )
                  (     0          0         -1      )
                  (     1          1          1      )

 cart.    s(42) = (  0.0000000  1.0000000  0.0000000 )
                  (  0.0000000  0.0000000 -1.0000000 )
                  (  1.0000000  0.0000000  0.0000000 )


      isym = 43     inv. 120 deg rotation - cart. axis [1,1,-1]  

 cryst.   s(43) = (     0         -1          0      )
                  (     1          1          1      )
                  (     0          0         -1      )

 cart.    s(43) = (  0.0000000 -1.0000000  0.0000000 )
                  (  0.0000000  0.0000000  1.0000000 )
                  (  1.0000000  0.0000000  0.0000000 )


      isym = 44     inv. 120 deg rotation - cart. axis [1,-1,1]  

 cryst.   s(44) = (     1          1          1      )
                  (     0         -1          0      )
                  (    -1          0          0      )

 cart.    s(44) = (  0.0000000  1.0000000  0.0000000 )
                  (  0.0000000  0.0000000  1.0000000 )
                  ( -1.0000000  0.0000000  0.0000000 )


      isym = 45     inv. 120 deg rotation - cart. axis [1,1,1]   

 cryst.   s(45) = (     0         -1          0      )
                  (     0          0         -1      )
                  (    -1          0          0      )

 cart.    s(45) = (  0.0000000  0.0000000 -1.0000000 )
                  ( -1.0000000  0.0000000  0.0000000 )
                  (  0.0000000 -1.0000000  0.0000000 )


      isym = 46     inv. 120 deg rotation - cart. axis [-1,1,-1] 

 cryst.   s(46) = (     0          0         -1      )
                  (     0         -1          0      )
                  (     1          1          1      )

 cart.    s(46) = (  0.0000000  0.0000000 -1.0000000 )
                  (  1.0000000  0.0000000  0.0000000 )
                  (  0.0000000  1.0000000  0.0000000 )


      isym = 47     inv. 120 deg rotation - cart. axis [1,-1,-1] 

 cryst.   s(47) = (    -1          0          0      )
                  (     1          1          1      )
                  (     0         -1          0      )

 cart.    s(47) = (  0.0000000  0.0000000  1.0000000 )
                  (  1.0000000  0.0000000  0.0000000 )
                  (  0.0000000 -1.0000000  0.0000000 )


      isym = 48     inv. 120 deg rotation - cart. axis [-1,-1,1] 

 cryst.   s(48) = (     1          1          1      )
                  (    -1          0          0      )
                  (     0          0         -1      )

 cart.    s(48) = (  0.0000000  0.0000000  1.0000000 )
                  ( -1.0000000  0.0000000  0.0000000 )
                  (  0.0000000  1.0000000  0.0000000 )


   Cartesian axes

     site n.     atom                  positions (alat units)
         1           In  tau(   1) = (   0.0000000   0.0000000   0.0000000  )

   Crystallographic axes

     site n.     atom                  positions (cryst. coord.)
         1           In  tau(   1) = (  0.0000000  0.0000000  0.0000000  )

     number of k points=    50  gaussian smearing, width (Ry)=  0.0010
                       cart. coord. in units 2pi/alat
        k(    1) = (   0.0000000   0.0000000   0.0000000), wk =   0.0400000
        k(    2) = (   0.0000000   0.0618590   0.0000000), wk =   0.0400000
        k(    3) = (   0.0000000   0.1237179   0.0000000), wk =   0.0400000
        k(    4) = (   0.0000000   0.1855769   0.0000000), wk =   0.0400000
        k(    5) = (   0.0000000   0.2474358   0.0000000), wk =   0.0400000
        k(    6) = (   0.0000000   0.3092948   0.0000000), wk =   0.0400000
        k(    7) = (   0.0000000   0.3711537   0.0000000), wk =   0.0400000
        k(    8) = (   0.0000000   0.4330127   0.0000000), wk =   0.0400000
        k(    9) = (   0.0000000   0.4948717   0.0000000), wk =   0.0400000
        k(   10) = (   0.0000000   0.5567306   0.0000000), wk =   0.0400000
        k(   11) = (   0.0000000   0.6185896   0.0000000), wk =   0.0400000
        k(   12) = (   0.0000000   0.6804485   0.0000000), wk =   0.0400000
        k(   13) = (   0.0000000   0.7423075   0.0000000), wk =   0.0400000
        k(   14) = (   0.0000000   0.8041664   0.0000000), wk =   0.0400000
        k(   15) = (   0.0000000   0.8660254   0.0000000), wk =   0.0400000
        k(   16) = (   0.0433013   0.8227241   0.0000000), wk =   0.0400000
        k(   17) = (   0.0866025   0.7794229   0.0000000), wk =   0.0400000
        k(   18) = (   0.1299038   0.7361216   0.0000000), wk =   0.0400000
        k(   19) = (   0.1732051   0.6928203   0.0000000), wk =   0.0400000
        k(   20) = (   0.2165064   0.6495191   0.0000000), wk =   0.0400000
        k(   21) = (   0.2598076   0.6062178   0.0000000), wk =   0.0400000
        k(   22) = (   0.3031089   0.5629165   0.0000000), wk =   0.0400000
        k(   23) = (   0.3464102   0.5196152   0.0000000), wk =   0.0400000
        k(   24) = (   0.3897114   0.4763140   0.0000000), wk =   0.0400000
        k(   25) = (   0.4330127   0.4330127   0.0000000), wk =   0.0400000
        k(   26) = (   0.3936479   0.3936479   0.0000000), wk =   0.0400000
        k(   27) = (   0.3542831   0.3542831   0.0000000), wk =   0.0400000
        k(   28) = (   0.3149183   0.3149183   0.0000000), wk =   0.0400000
        k(   29) = (   0.2755535   0.2755535   0.0000000), wk =   0.0400000
        k(   30) = (   0.2361887   0.2361887   0.0000000), wk =   0.0400000
        k(   31) = (   0.1968240   0.1968240   0.0000000), wk =   0.0400000
        k(   32) = (   0.1574592   0.1574592   0.0000000), wk =   0.0400000
        k(   33) = (   0.1180944   0.1180944   0.0000000), wk =   0.0400000
        k(   34) = (   0.0787296   0.0787296   0.0000000), wk =   0.0400000
        k(   35) = (   0.0393648   0.0393648   0.0000000), wk =   0.0400000
        k(   36) = (   0.0000000   0.0000000   0.0000000), wk =   0.0400000
        k(   37) = (   0.0309295   0.0309295   0.0309295), wk =   0.0400000
        k(   38) = (   0.0618590   0.0618590   0.0618590), wk =   0.0400000
        k(   39) = (   0.0927884   0.0927884   0.0927884), wk =   0.0400000
        k(   40) = (   0.1237179   0.1237179   0.1237179), wk =   0.0400000
        k(   41) = (   0.1546474   0.1546474   0.1546474), wk =   0.0400000
        k(   42) = (   0.1855769   0.1855769   0.1855769), wk =   0.0400000
        k(   43) = (   0.2165064   0.2165064   0.2165064), wk =   0.0400000
        k(   44) = (   0.2474358   0.2474358   0.2474358), wk =   0.0400000
        k(   45) = (   0.2783653   0.2783653   0.2783653), wk =   0.0400000
        k(   46) = (   0.3092948   0.3092948   0.3092948), wk =   0.0400000
        k(   47) = (   0.3402243   0.3402243   0.3402243), wk =   0.0400000
        k(   48) = (   0.3711537   0.3711537   0.3711537), wk =   0.0400000
        k(   49) = (   0.4020832   0.4020832   0.4020832), wk =   0.0400000
        k(   50) = (   0.4330127   0.4330127   0.4330127), wk =   0.0400000

                       cryst. coord.
        k(    1) = (   0.0000000   0.0000000   0.0000000), wk =   0.0400000
        k(    2) = (   0.0357143  -0.0357143   0.0357143), wk =   0.0400000
        k(    3) = (   0.0714286  -0.0714286   0.0714286), wk =   0.0400000
        k(    4) = (   0.1071429  -0.1071429   0.1071429), wk =   0.0400000
        k(    5) = (   0.1428571  -0.1428571   0.1428571), wk =   0.0400000
        k(    6) = (   0.1785714  -0.1785714   0.1785714), wk =   0.0400000
        k(    7) = (   0.2142857  -0.2142857   0.2142857), wk =   0.0400000
        k(    8) = (   0.2500000  -0.2500000   0.2500000), wk =   0.0400000
        k(    9) = (   0.2857143  -0.2857143   0.2857143), wk =   0.0400000
        k(   10) = (   0.3214286  -0.3214286   0.3214286), wk =   0.0400000
        k(   11) = (   0.3571429  -0.3571429   0.3571429), wk =   0.0400000
        k(   12) = (   0.3928571  -0.3928571   0.3928571), wk =   0.0400000
        k(   13) = (   0.4285714  -0.4285714   0.4285714), wk =   0.0400000
        k(   14) = (   0.4642857  -0.4642857   0.4642857), wk =   0.0400000
        k(   15) = (   0.5000000  -0.5000000   0.5000000), wk =   0.0400000
        k(   16) = (   0.4500000  -0.4500000   0.5000000), wk =   0.0400000
        k(   17) = (   0.4000000  -0.4000000   0.5000000), wk =   0.0400000
        k(   18) = (   0.3500000  -0.3500000   0.5000000), wk =   0.0400000
        k(   19) = (   0.3000000  -0.3000000   0.5000000), wk =   0.0400000
        k(   20) = (   0.2500000  -0.2500000   0.5000000), wk =   0.0400000
        k(   21) = (   0.2000000  -0.2000000   0.5000000), wk =   0.0400000
        k(   22) = (   0.1500000  -0.1500000   0.5000000), wk =   0.0400000
        k(   23) = (   0.1000000  -0.1000000   0.5000000), wk =   0.0400000
        k(   24) = (   0.0500000  -0.0500000   0.5000000), wk =   0.0400000
        k(   25) = (   0.0000000   0.0000000   0.5000000), wk =   0.0400000
        k(   26) = (   0.0000000   0.0000000   0.4545455), wk =   0.0400000
        k(   27) = (   0.0000000   0.0000000   0.4090909), wk =   0.0400000
        k(   28) = (   0.0000000   0.0000000   0.3636364), wk =   0.0400000
        k(   29) = (   0.0000000   0.0000000   0.3181818), wk =   0.0400000
        k(   30) = (   0.0000000   0.0000000   0.2727273), wk =   0.0400000
        k(   31) = (   0.0000000   0.0000000   0.2272727), wk =   0.0400000
        k(   32) = (   0.0000000   0.0000000   0.1818182), wk =   0.0400000
        k(   33) = (   0.0000000   0.0000000   0.1363636), wk =   0.0400000
        k(   34) = (   0.0000000   0.0000000   0.0909091), wk =   0.0400000
        k(   35) = (   0.0000000   0.0000000   0.0454545), wk =   0.0400000
        k(   36) = (   0.0000000   0.0000000   0.0000000), wk =   0.0400000
        k(   37) = (   0.0178571   0.0178571   0.0178571), wk =   0.0400000
        k(   38) = (   0.0357143   0.0357143   0.0357143), wk =   0.0400000
        k(   39) = (   0.0535714   0.0535714   0.0535714), wk =   0.0400000
        k(   40) = (   0.0714286   0.0714286   0.0714286), wk =   0.0400000
        k(   41) = (   0.0892857   0.0892857   0.0892857), wk =   0.0400000
        k(   42) = (   0.1071429   0.1071429   0.1071429), wk =   0.0400000
        k(   43) = (   0.1250000   0.1250000   0.1250000), wk =   0.0400000
        k(   44) = (   0.1428571   0.1428571   0.1428571), wk =   0.0400000
        k(   45) = (   0.1607143   0.1607143   0.1607143), wk =   0.0400000
        k(   46) = (   0.1785714   0.1785714   0.1785714), wk =   0.0400000
        k(   47) = (   0.1964286   0.1964286   0.1964286), wk =   0.0400000
        k(   48) = (   0.2142857   0.2142857   0.2142857), wk =   0.0400000
        k(   49) = (   0.2321429   0.2321429   0.2321429), wk =   0.0400000
        k(   50) = (   0.2500000   0.2500000   0.2500000), wk =   0.0400000

     Dense  grid:     8853 G-vectors     FFT dimensions: (  30,  30,  30)

     Smooth grid:     6459 G-vectors     FFT dimensions: (  25,  25,  25)

     Estimated max dynamical RAM per process >      11.10Mb

     The potential is recalculated from file :
     ./pwscf.save/charge-density.dat

     Starting wfc are    9 randomized atomic wfcs +    2 random wfc

     Band Structure Calculation
     Davidson diagonalization with overlap

     Computing kpt #:     1
     total cpu time spent up to now is        0.8 secs

     Computing kpt #:     2
     total cpu time spent up to now is        0.9 secs

     Computing kpt #:     3
     total cpu time spent up to now is        1.1 secs

     Computing kpt #:     4
     total cpu time spent up to now is        1.2 secs

     Computing kpt #:     5
     total cpu time spent up to now is        1.3 secs

     Computing kpt #:     6
     total cpu time spent up to now is        1.5 secs

     Computing kpt #:     7
     total cpu time spent up to now is        1.6 secs

     Computing kpt #:     8
     total cpu time spent up to now is        1.8 secs

     Computing kpt #:     9
     total cpu time spent up to now is        1.9 secs

     Computing kpt #:    10
     total cpu time spent up to now is        2.0 secs

     Computing kpt #:    11
     total cpu time spent up to now is        2.1 secs

     Computing kpt #:    12
     total cpu time spent up to now is        2.2 secs

     Computing kpt #:    13
     total cpu time spent up to now is        2.3 secs

     Computing kpt #:    14
     total cpu time spent up to now is        2.4 secs

     Computing kpt #:    15
     total cpu time spent up to now is        2.5 secs

     Computing kpt #:    16
     total cpu time spent up to now is        2.6 secs

     Computing kpt #:    17
     total cpu time spent up to now is        2.7 secs

     Computing kpt #:    18
     total cpu time spent up to now is        2.8 secs

     Computing kpt #:    19
     total cpu time spent up to now is        2.9 secs

     Computing kpt #:    20
     total cpu time spent up to now is        3.1 secs

     Computing kpt #:    21
     total cpu time spent up to now is        3.2 secs

     Computing kpt #:    22
     total cpu time spent up to now is        3.3 secs

     Computing kpt #:    23
     total cpu time spent up to now is        3.4 secs

     Computing kpt #:    24
     total cpu time spent up to now is        3.6 secs

     Computing kpt #:    25
     total cpu time spent up to now is        3.7 secs

     Computing kpt #:    26
     total cpu time spent up to now is        3.8 secs

     Computing kpt #:    27
     total cpu time spent up to now is        3.9 secs

     Computing kpt #:    28
     total cpu time spent up to now is        4.0 secs

     Computing kpt #:    29
     total cpu time spent up to now is        4.2 secs

     Computing kpt #:    30
     total cpu time spent up to now is        4.3 secs

     Computing kpt #:    31
     total cpu time spent up to now is        4.4 secs

     Computing kpt #:    32
     total cpu time spent up to now is        4.5 secs

     Computing kpt #:    33
     total cpu time spent up to now is        4.7 secs

     Computing kpt #:    34
     total cpu time spent up to now is        4.8 secs

     Computing kpt #:    35
     total cpu time spent up to now is        5.1 secs

     Computing kpt #:    36
     total cpu time spent up to now is        5.2 secs

     Computing kpt #:    37
     total cpu time spent up to now is        5.4 secs

     Computing kpt #:    38
     total cpu time spent up to now is        5.5 secs

     Computing kpt #:    39
     total cpu time spent up to now is        5.7 secs

     Computing kpt #:    40
     total cpu time spent up to now is        5.8 secs

     Computing kpt #:    41
     total cpu time spent up to now is        6.0 secs

     Computing kpt #:    42
     total cpu time spent up to now is        6.1 secs

     Computing kpt #:    43
     total cpu time spent up to now is        6.2 secs

     Computing kpt #:    44
     total cpu time spent up to now is        6.4 secs

     Computing kpt #:    45
     total cpu time spent up to now is        6.6 secs

     Computing kpt #:    46
     total cpu time spent up to now is        6.9 secs

     Computing kpt #:    47
     total cpu time spent up to now is        7.2 secs

     Computing kpt #:    48
     total cpu time spent up to now is        7.5 secs

     Computing kpt #:    49
     total cpu time spent up to now is        7.7 secs

     Computing kpt #:    50
     total cpu time spent up to now is        7.9 secs

     ethr =  7.69E-10,  avg # of iterations = 17.6

     total cpu time spent up to now is        7.9 secs

     End of band structure calculation

          k = 0.0000 0.0000 0.0000 (   791 PWs)   bands (ev):

    -5.1841  -5.1841  -5.1841  -4.9468  -4.9468   0.2894  19.8526  19.8526
    19.8526  22.1781  22.1781

          k = 0.0000 0.0619 0.0000 (   787 PWs)   bands (ev):

    -5.1815  -5.1815  -5.1797  -4.9506  -4.9456   0.3457  19.4625  19.5574
    19.5574  21.6363  21.9951

          k = 0.0000 0.1237 0.0000 (   803 PWs)   bands (ev):

    -5.1744  -5.1744  -5.1670  -4.9619  -4.9443   0.5150  18.5666  18.7719
    18.7719  20.6774  21.9437

          k = 0.0000 0.1856 0.0000 (   799 PWs)   bands (ev):

    -5.1615  -5.1615  -5.1462  -4.9803  -4.9431   0.7983  17.5146  17.7615
    17.7615  19.7093  22.1666

          k = 0.0000 0.2474 0.0000 (   803 PWs)   bands (ev):

    -5.1427  -5.1427  -5.1187  -5.0050  -4.9473   1.1969  16.4691  16.7056
    16.7056  18.8087  22.5824

          k = 0.0000 0.3093 0.0000 (   807 PWs)   bands (ev):

    -5.1176  -5.1176  -5.0858  -5.0353  -4.9596   1.7112  15.4967  15.6779
    15.6779  17.9941  23.1477

          k = 0.0000 0.3712 0.0000 (   803 PWs)   bands (ev):

    -5.0866  -5.0866  -5.0688  -5.0485  -4.9821   2.3405  14.6252  14.7110
    14.7110  17.2708  23.8413

          k = 0.0000 0.4330 0.0000 (   811 PWs)   bands (ev):

    -5.1047  -5.0506  -5.0506  -5.0151  -5.0098   3.0825  13.8231  13.8231
    13.8657  16.6395  24.6493

          k = 0.0000 0.4949 0.0000 (   799 PWs)   bands (ev):

    -5.1408  -5.0567  -5.0100  -5.0100  -4.9709   3.9329  13.0271  13.0271
    13.2192  16.0989  23.1090

          k = 0.0000 0.5567 0.0000 (   799 PWs)   bands (ev):

    -5.1754  -5.1048  -4.9679  -4.9679  -4.9341   4.8848  12.3333  12.3333
    12.6800  15.6470  21.1804

          k = 0.0000 0.6186 0.0000 (   803 PWs)   bands (ev):

    -5.2067  -5.1543  -4.9270  -4.9270  -4.9011   5.9274  11.7509  11.7509
    12.2357  15.2815  19.3486

          k = 0.0000 0.6804 0.0000 (   804 PWs)   bands (ev):

    -5.2331  -5.2002  -4.8902  -4.8902  -4.8736   7.0426  11.2880  11.2880
    11.8638  15.0001  17.6537

          k = 0.0000 0.7423 0.0000 (   804 PWs)   bands (ev):

    -5.2532  -5.2371  -4.8612  -4.8612  -4.8523   8.1952  10.9518  10.9518
    11.5187  14.8007  16.1717

          k = 0.0000 0.8042 0.0000 (   804 PWs)   bands (ev):

    -5.2653  -5.2614  -4.8423  -4.8423  -4.8395   9.3059  10.7476  10.7476
    11.1071  14.6818  15.0704

          k = 0.0000 0.8660 0.0000 (   784 PWs)   bands (ev):

    -5.2692  -5.2692  -4.8351  -4.8351  -4.8351  10.0283  10.6792  10.6792
    10.6792  14.6423  14.6423

          k = 0.0433 0.8227 0.0000 (   812 PWs)   bands (ev):

    -5.2646  -5.2629  -4.8473  -4.8419  -4.8348   9.4077  10.4408  10.7462
    11.3137  14.7839  14.9616

          k = 0.0866 0.7794 0.0000 (   818 PWs)   bands (ev):

    -5.2504  -5.2419  -4.8805  -4.8604  -4.8323   8.6079   9.8830  10.9452
    12.1259  15.2368  15.7632

          k = 0.1299 0.7361 0.0000 (   806 PWs)   bands (ev):

    -5.2284  -5.2080  -4.9314  -4.8883  -4.8281   7.8767   9.2217  11.2702
    12.8243  16.0398  16.8333

          k = 0.1732 0.6928 0.0000 (   806 PWs)   bands (ev):

    -5.2035  -5.1653  -4.9948  -4.9214  -4.8230   7.2390   8.5670  11.7116
    13.4079  17.1576  18.0647

          k = 0.2165 0.6495 0.0000 (   802 PWs)   bands (ev):

    -5.1819  -5.1166  -5.0636  -4.9526  -4.8171   6.7022   7.9690  12.2556
    13.9447  18.4904  19.4111

          k = 0.2598 0.6062 0.0000 (   802 PWs)   bands (ev):

    -5.1717  -5.1313  -5.0665  -4.9730  -4.8115   6.2675   7.4538  12.8831
    14.4913  19.9005  20.8494

          k = 0.3031 0.5629 0.0000 (   804 PWs)   bands (ev):

    -5.1909  -5.1769  -5.0205  -4.9777  -4.8063   5.9337   7.0378  13.5645
    15.0725  20.8275  21.4019

          k = 0.3464 0.5196 0.0000 (   804 PWs)   bands (ev):

    -5.2375  -5.1912  -4.9830  -4.9715  -4.8023   5.6980   6.7324  14.2454
    15.6791  20.2793  20.3534

          k = 0.3897 0.4763 0.0000 (   806 PWs)   bands (ev):

    -5.2677  -5.2042  -4.9634  -4.9585  -4.7996   5.5580   6.5459  14.8112
    16.2353  19.5066  19.5674

          k = 0.4330 0.4330 0.0000 (   814 PWs)   bands (ev):

    -5.2781  -5.2095  -4.9603  -4.9502  -4.7989   5.5115   6.4831  15.0496
    16.4999  19.1563  19.2557

          k = 0.3936 0.3936 0.0000 (   806 PWs)   bands (ev):

    -5.2760  -5.2064  -4.9618  -4.9499  -4.8069   4.8989   7.1847  15.1098
    16.5456  19.1787  19.2838

          k = 0.3543 0.3543 0.0000 (   806 PWs)   bands (ev):

    -5.2705  -5.1981  -4.9661  -4.9500  -4.8309   4.0524   8.2976  15.2888
    16.6821  19.2467  19.3680

          k = 0.3149 0.3149 0.0000 (   802 PWs)   bands (ev):

    -5.2618  -5.1868  -4.9719  -4.9497  -4.8681   3.2657   9.5265  15.5827
    16.9068  19.3620  19.5088

          k = 0.2756 0.2756 0.0000 (   806 PWs)   bands (ev):

    -5.2507  -5.1752  -4.9775  -4.9496  -4.9155   2.5651  10.8424  15.9844
    17.2154  19.5271  19.7068

          k = 0.2362 0.2362 0.0000 (   804 PWs)   bands (ev):

    -5.2379  -5.1661  -4.9803  -4.9687  -4.9493   1.9569  12.2342  16.4842
    17.6005  19.7448  19.9627

          k = 0.1968 0.1968 0.0000 (   794 PWs)   bands (ev):

    -5.2243  -5.1619  -5.0236  -4.9781  -4.9488   1.4435  13.6911  17.0690
    18.0497  20.0173  20.2768

          k = 0.1575 0.1575 0.0000 (   800 PWs)   bands (ev):

    -5.2115  -5.1640  -5.0755  -4.9720  -4.9488   1.0252  15.1975  17.7202
    18.5415  20.3450  20.6476

          k = 0.1181 0.1181 0.0000 (   808 PWs)   bands (ev):

    -5.2002  -5.1703  -5.1208  -4.9634  -4.9485   0.7018  16.7227  18.4084
    19.0372  20.7275  21.0702

          k = 0.0787 0.0787 0.0000 (   795 PWs)   bands (ev):

    -5.1914  -5.1772  -5.1549  -4.9548  -4.9476   0.4721  18.1898  19.0803
    19.4699  21.1723  21.5278

          k = 0.0394 0.0394 0.0000 (   789 PWs)   bands (ev):

    -5.1860  -5.1820  -5.1767  -4.9488  -4.9469   0.3350  19.3781  19.6265
    19.7565  21.7246  21.9622

          k = 0.0000 0.0000 0.0000 (   791 PWs)   bands (ev):

    -5.1841  -5.1841  -5.1841  -4.9468  -4.9468   0.2894  19.8526  19.8526
    19.8526  22.1781  22.1781

          k = 0.0309 0.0309 0.0309 (   785 PWs)   bands (ev):

    -5.1845  -5.1845  -5.1759  -4.9477  -4.9477   0.3316  19.4000  19.7045
    19.7045  21.8257  21.8257

          k = 0.0619 0.0619 0.0619 (   797 PWs)   bands (ev):

    -5.1863  -5.1863  -5.1534  -4.9507  -4.9507   0.4586  18.3792  19.1654
    19.1654  21.5008  21.5008

          k = 0.0928 0.0928 0.0928 (   806 PWs)   bands (ev):

    -5.1895  -5.1895  -5.1180  -4.9546  -4.9546   0.6713  17.1728  18.2893
    18.2893  21.5532  21.5532

          k = 0.1237 0.1237 0.1237 (   815 PWs)   bands (ev):

    -5.1936  -5.1936  -5.0745  -4.9585  -4.9585   0.9709  15.9378  17.2905
    17.2905  21.8522  21.8522

          k = 0.1546 0.1546 0.1546 (   809 PWs)   bands (ev):

    -5.1978  -5.1978  -5.0285  -4.9609  -4.9609   1.3585  14.7368  16.2798
    16.2798  22.3086  22.3086

          k = 0.1856 0.1856 0.1856 (   814 PWs)   bands (ev):

    -5.2018  -5.2018  -4.9855  -4.9621  -4.9621   1.8343  13.6005  15.2984
    15.2984  22.8860  22.8860

          k = 0.2165 0.2165 0.2165 (   802 PWs)   bands (ev):

    -5.2032  -5.2032  -4.9613  -4.9613  -4.9508   2.3976  12.5469  14.3638
    14.3638  23.5658  23.5658

          k = 0.2474 0.2474 0.2474 (   808 PWs)   bands (ev):

    -5.2019  -5.2019  -4.9597  -4.9597  -4.9287   3.0456  11.5885  13.4846
    13.4846  24.3339  24.3339

          k = 0.2784 0.2784 0.2784 (   796 PWs)   bands (ev):

    -5.1956  -5.1956  -4.9570  -4.9570  -4.9216   3.7725  10.7360  12.6662
    12.6662  24.7843  25.1766

          k = 0.3093 0.3093 0.3093 (   796 PWs)   bands (ev):

    -5.1845  -5.1845  -4.9541  -4.9541  -4.9314   4.5670  10.0021  11.9125
    11.9125  24.7990  26.0430

          k = 0.3402 0.3402 0.3402 (   790 PWs)   bands (ev):

    -5.1680  -5.1680  -4.9570  -4.9513  -4.9513   5.4037   9.4103  11.2270
    11.2270  24.8098  26.8502

          k = 0.3712 0.3712 0.3712 (   799 PWs)   bands (ev):

    -5.1472  -5.1472  -4.9963  -4.9493  -4.9493   6.2143   9.0244  10.6131
    10.6131  24.8166  27.7319

          k = 0.4021 0.4021 0.4021 (   799 PWs)   bands (ev):

    -5.1227  -5.1227  -5.0445  -4.9481  -4.9481   6.8109   9.0257  10.0739
    10.0739  24.8208  28.4115

          k = 0.4330 0.4330 0.4330 (   784 PWs)   bands (ev):

    -5.0961  -5.0961  -5.0961  -4.9476  -4.9476   6.9865   9.6129   9.6129
     9.6129  24.8226  28.7656

     Writing output data file pwscf.save

     init_run     :      0.56s CPU      0.48s WALL (       1 calls)
     electrons    :     14.70s CPU      7.25s WALL (       1 calls)

     Called by init_run:
     wfcinit      :      0.00s CPU      0.00s WALL (       1 calls)
     wfcinit:atom :      0.02s CPU      0.03s WALL (      50 calls)
     wfcinit:wfcr :      1.33s CPU      0.45s WALL (      50 calls)
     potinit      :      0.03s CPU      0.03s WALL (       1 calls)

     Called by electrons:
     c_bands      :     14.70s CPU      7.24s WALL (       1 calls)
     v_of_rho     :      0.03s CPU      0.02s WALL (       1 calls)
     v_h          :      0.00s CPU      0.00s WALL (       1 calls)
     v_xc         :      0.03s CPU      0.02s WALL (       1 calls)
     newd         :      0.00s CPU      0.06s WALL (       1 calls)

     Called by c_bands:
     init_us_2    :      0.09s CPU      0.04s WALL (      50 calls)
     cegterg      :     13.23s CPU      6.59s WALL (      62 calls)

     Called by sum_band:

     Called by *egterg:
     h_psi        :      8.66s CPU      4.33s WALL (     992 calls)
     s_psi        :      0.27s CPU      0.14s WALL (     992 calls)
     g_psi        :      0.25s CPU      0.05s WALL (     880 calls)
     cdiaghg      :      3.22s CPU      1.43s WALL (     930 calls)
     cegterg:over :      1.03s CPU      0.39s WALL (     880 calls)
     cegterg:upda :      0.67s CPU      0.33s WALL (     880 calls)
     cegterg:last :      0.20s CPU      0.19s WALL (     174 calls)

     Called by h_psi:
     h_psi:pot    :      8.66s CPU      4.29s WALL (     992 calls)
     h_psi:calbec :      0.28s CPU      0.17s WALL (     992 calls)
     vloc_psi     :      7.88s CPU      3.94s WALL (     992 calls)
     add_vuspsi   :      0.48s CPU      0.15s WALL (     992 calls)

     General routines
     calbec       :      0.28s CPU      0.15s WALL (     992 calls)
     fft          :      0.02s CPU      0.01s WALL (      13 calls)
     ffts         :      0.00s CPU      0.00s WALL (       1 calls)
     fftw         :      6.56s CPU      3.30s WALL (   11796 calls)
     interpolate  :      0.00s CPU      0.00s WALL (       1 calls)
     davcio       :      0.00s CPU      0.00s WALL (      50 calls)

     Parallel routines
     fft_scatter  :      0.69s CPU      0.35s WALL (   11810 calls)

     PWSCF        :    15.75s CPU         8.15s WALL


   This run was terminated on:  20:38:59  25Feb2021            

=------------------------------------------------------------------------------=
   JOB DONE.
=------------------------------------------------------------------------------=
