element =  Sn
struct =  bcc
nbands =  -4
path =  GHNGP
kpts =  (8,8,8)
lattice constant a =  3.809
lattice constant b =  3.809
lattice constant c =  3.809
alpha angle =  90.0

  ___ ___ ___ _ _ _  
 |   |   |_  | | | | 
 | | | | | . | | | | 
 |__ |  _|___|_____|  1.3.1b1
 |___|_|             

User:   inukai@DESKTOP-12SE80T
Date:   Fri Feb 12 01:40:48 2021
Arch:   x86_64
Pid:    17340
Python: 3.6.9
gpaw:   /usr/lib/python3/dist-packages/gpaw
_gpaw:  /usr/lib/python3/dist-packages/_gpaw.cpython-36m-x86_64-linux-gnu.so
ase:    /home/inukai/hotcent/ase-3.19.3/ase (version 3.19.3)
numpy:  /home/inukai/.local/lib/python3.6/site-packages/numpy (version 1.19.5)
scipy:  /home/inukai/.local/lib/python3.6/site-packages/scipy (version 1.5.4)
units:  Angstrom and eV
cores:  1

Input parameters:
  kpts: [8 8 8]
  maxiter: 1500
  mixer: {backend: pulay,
          beta: 0.01,
          method: separate,
          nmaxold: 11,
          weight: 100.0}
  mode: {ecut: 400.0,
         name: pw}
  occupations: {name: fermi-dirac,
                width: 0.02}
  spinpol: True
  xc: PBE

System changes: positions, numbers, cell, pbc, initial_charges, initial_magmoms 

Initialize ...

Sn-setup:
  name: Tin
  id: d1329c6b410f1e0bd923643368775dcd
  Z: 50
  valence: 14
  core: 36
  charge: 0.0
  file: /usr/share/gpaw-setups/Sn.PBE.gz
  cutoffs: 1.20(comp), 2.23(filt), 2.35(core), lmax=2
  valence states:
                energy  radius
    5s(2.00)   -10.538   1.201
    5p(2.00)    -3.696   1.270
    4d(10.00)   -25.845   1.185
    *s          16.674   1.201
    *p          23.515   1.270
    *d           1.367   1.185

  Using partial waves for Sn as LCAO basis

Reference energy: -168010.693307

Spin-polarized calculation.
Magnetic moment:  0.000000

Occupation numbers:
  Fermi-Dirac: width=0.0200 eV

Convergence criteria:
  Maximum total energy change: 0.0005 eV / electron
  Maximum integral of absolute density change: 0.0001 electrons
  Maximum integral of absolute eigenstate change: 4e-08 eV^2
  Maximum number of iterations: 1500

Symmetries present (total): 48

  ( 1  1  1)  ( 1  1  1)  ( 1  1  1)  ( 1  1  1)  ( 1  1  1)  ( 1  1  1)
  ( 0  0 -1)  ( 0  0 -1)  ( 0 -1  0)  ( 0 -1  0)  (-1  0  0)  (-1  0  0)
  ( 0 -1  0)  (-1  0  0)  ( 0  0 -1)  (-1  0  0)  ( 0  0 -1)  ( 0 -1  0)

  ( 1  0  0)  ( 1  0  0)  ( 1  0  0)  ( 1  0  0)  ( 1  0  0)  ( 1  0  0)
  ( 0  1  0)  ( 0  1  0)  ( 0  0  1)  ( 0  0  1)  (-1 -1 -1)  (-1 -1 -1)
  ( 0  0  1)  (-1 -1 -1)  ( 0  1  0)  (-1 -1 -1)  ( 0  1  0)  ( 0  0  1)

  ( 0  1  0)  ( 0  1  0)  ( 0  1  0)  ( 0  1  0)  ( 0  1  0)  ( 0  1  0)
  ( 1  0  0)  ( 1  0  0)  ( 0  0  1)  ( 0  0  1)  (-1 -1 -1)  (-1 -1 -1)
  ( 0  0  1)  (-1 -1 -1)  ( 1  0  0)  (-1 -1 -1)  ( 1  0  0)  ( 0  0  1)

  ( 0  0  1)  ( 0  0  1)  ( 0  0  1)  ( 0  0  1)  ( 0  0  1)  ( 0  0  1)
  ( 1  0  0)  ( 1  0  0)  ( 0  1  0)  ( 0  1  0)  (-1 -1 -1)  (-1 -1 -1)
  ( 0  1  0)  (-1 -1 -1)  ( 1  0  0)  (-1 -1 -1)  ( 1  0  0)  ( 0  1  0)

  ( 0  0 -1)  ( 0  0 -1)  ( 0  0 -1)  ( 0  0 -1)  ( 0  0 -1)  ( 0  0 -1)
  ( 1  1  1)  ( 1  1  1)  ( 0 -1  0)  ( 0 -1  0)  (-1  0  0)  (-1  0  0)
  ( 0 -1  0)  (-1  0  0)  ( 1  1  1)  (-1  0  0)  ( 1  1  1)  ( 0 -1  0)

  ( 0 -1  0)  ( 0 -1  0)  ( 0 -1  0)  ( 0 -1  0)  ( 0 -1  0)  ( 0 -1  0)
  ( 1  1  1)  ( 1  1  1)  ( 0  0 -1)  ( 0  0 -1)  (-1  0  0)  (-1  0  0)
  ( 0  0 -1)  (-1  0  0)  ( 1  1  1)  (-1  0  0)  ( 1  1  1)  ( 0  0 -1)

  (-1  0  0)  (-1  0  0)  (-1  0  0)  (-1  0  0)  (-1  0  0)  (-1  0  0)
  ( 1  1  1)  ( 1  1  1)  ( 0  0 -1)  ( 0  0 -1)  ( 0 -1  0)  ( 0 -1  0)
  ( 0  0 -1)  ( 0 -1  0)  ( 1  1  1)  ( 0 -1  0)  ( 1  1  1)  ( 0  0 -1)

  (-1 -1 -1)  (-1 -1 -1)  (-1 -1 -1)  (-1 -1 -1)  (-1 -1 -1)  (-1 -1 -1)
  ( 1  0  0)  ( 1  0  0)  ( 0  1  0)  ( 0  1  0)  ( 0  0  1)  ( 0  0  1)
  ( 0  1  0)  ( 0  0  1)  ( 1  0  0)  ( 0  0  1)  ( 1  0  0)  ( 0  1  0)

512 k-points: 8 x 8 x 8 Monkhorst-Pack grid
26 k-points in the irreducible part of the Brillouin zone
       k-points in crystal coordinates                weights
   0:     0.06250000    0.06250000   -0.06250000          6/512
   1:     0.18750000   -0.06250000   -0.06250000          8/512
   2:     0.18750000    0.06250000   -0.06250000         24/512
   3:     0.18750000    0.18750000   -0.18750000          6/512
   4:     0.31250000   -0.06250000   -0.06250000         24/512
   5:     0.31250000    0.06250000   -0.18750000         24/512
   6:     0.31250000    0.06250000   -0.06250000         24/512
   7:     0.31250000    0.18750000   -0.18750000         24/512
   8:     0.31250000    0.31250000   -0.31250000          6/512
   9:     0.31250000    0.31250000    0.18750000         12/512
          ...
  25:     0.43750000    0.43750000    0.43750000          8/512

Wave functions: Plane wave expansion
  Cutoff energy: 400.000 eV
  Number of coefficients (min, max): 487, 515
  Using FFTW library
  Eigensolver: None  MatrixOperator buffer_size: default value or 
                              see value of nblock in input file
Diagonalizer layout: Serial LAPACKOrthonormalizer layout: Serial LAPACK 

Davidson(niter=1, smin=None, normalize=True) 

Densities:
  Coarse grid: 12*12*12 grid
  Fine grid: 24*24*24 grid
  Total Charge: 0.000000 

Density mixing:
  Method: separate
  Backend: pulay
  Linear mixing parameter: 0.01
  Mixing with 11 old densities
  Damping of long wave oscillations: 100 

Hamiltonian:
  XC and Coulomb potentials evaluated on a 24*24*24 grid
  Using the PBE Exchange-Correlation functional
 

Memory estimate:
  Process memory now: 928.72 MiB
  Calculator: 7.36 MiB
    Density: 1.30 MiB
      Arrays: 0.46 MiB
      Localized functions: 0.26 MiB
      Mixer: 0.58 MiB
    Hamiltonian: 0.35 MiB
      Arrays: 0.34 MiB
      XC: 0.00 MiB
      Poisson: 0.00 MiB
      vbar: 0.01 MiB
    Wavefunctions: 5.71 MiB
      Arrays psit_nG: 3.68 MiB
      Eigensolver: 0.12 MiB
      Projections: 0.13 MiB
      Projectors: 1.49 MiB
      Overlap op: 0.07 MiB
      PW-descriptor: 0.22 MiB

Total number of cores used: 1

Number of atoms: 1
Number of atomic orbitals: 9
Number of bands in calculation: 9
Bands to converge: occupied states only
Number of valence electrons: 14

... initialized

Initializing position-dependent things.

Density initialized from atomic densities
Creating initial wave functions:
  9 bands from LCAO basis set

                
                
                
       Sn       
                
                
                
                

Positions:
   0 Sn     0.000000    0.000000    0.000000

Unit cell:
           periodic     x           y           z      points  spacing
  1. axis:    yes   -1.904500    1.904500    1.904500    12     0.2244
  2. axis:    yes    1.904500   -1.904500    1.904500    12     0.2244
  3. axis:    yes    1.904500    1.904500   -1.904500    12     0.2244

  Lengths:   3.298691   3.298691   3.298691
  Angles:  109.471221 109.471221 109.471221

Effective grid spacing dv^(1/3) = 0.2519

                     log10-error:    total        iterations:
           time      wfs    density  energy       fermi  poisson  magmom
iter:   1  01:40:51  +0.83   +inf    -3.780154    3               +0.0000
iter:   2  01:40:52  -0.16   +inf    -3.808893    3               -0.0000
iter:   3  01:40:52  -1.18   +inf    -3.813307    2               +0.0000
iter:   4  01:40:53  -1.66  -1.79    -3.813717    2               -0.0000
iter:   5  01:40:54  -2.30  -1.79    -3.815139    2               -0.0000
iter:   6  01:40:55  -0.66  -1.78    -3.803530    6               +0.0000
iter:   7  01:40:56  -2.20  -2.66    -3.803201    2               +0.0000
iter:   8  01:40:57  -3.40  -2.69    -3.802786    2               +0.0000
iter:   9  01:40:59  -1.74  -2.66    -3.809320    3               +0.0000
iter:  10  01:41:00  -0.93  -2.46    -3.800921    3               +0.0000
iter:  11  01:41:01  -3.51  -3.14    -3.801104    2               +0.0000
iter:  12  01:41:02  -2.98  -3.10    -3.800892    2               -0.0000
iter:  13  01:41:03  -3.30  -3.13    -3.800802    2               -0.0000
iter:  14  01:41:04  -4.57  -3.02    -3.800760    2               +0.0000
iter:  15  01:41:05  -3.70  -3.60    -3.800751    2               +0.0000
iter:  16  01:41:06  -4.23  -3.67    -3.800751    2               -0.0000
iter:  17  01:41:07  -6.20  -3.67    -3.800752    1               +0.0000
iter:  18  01:41:08  -5.18  -3.70    -3.800753    2               +0.0000
iter:  19  01:41:09  -6.93  -4.06    -3.800752    2               +0.0000
iter:  20  01:41:10  -7.38  -4.03    -3.800752    1               +0.0000
iter:  21  01:41:11  -7.01  -4.03    -3.800752    2               +0.0000
iter:  22  01:41:12  -5.84  -4.07    -3.800753    1               +0.0000
iter:  23  01:41:13  -7.12  -4.70    -3.800753    2               +0.0000
iter:  24  01:41:14  -6.47  -4.76    -3.800753    2               +0.0000
iter:  25  01:41:15  -6.52  -4.78    -3.800753    2               +0.0000
iter:  26  01:41:16  -6.75  -4.60    -3.800753    2               +0.0002
iter:  27  01:41:17  -6.69  -4.71    -3.800753    2               +0.0003
iter:  28  01:41:18  -7.37  -4.76    -3.800753    1               +0.0000
iter:  29  01:41:19  -6.65  -4.77    -3.800753    2               -0.0001
iter:  30  01:41:20  -5.32  -4.94    -3.800754    2               -0.0001
iter:  31  01:41:21  -5.84  -4.44    -3.800753    2               -0.0001
iter:  32  01:41:22  -5.86  -4.56    -3.800753    2               +0.0000
iter:  33  01:41:23  -6.31  -4.97    -3.800753    2               -0.0000
iter:  34  01:41:24  -7.35  -5.42    -3.800753    1               -0.0000
iter:  35  01:41:25  -8.51  -5.24    -3.800753    1               -0.0001

Converged after 35 iterations.

Dipole moment: (-0.000000, 0.000000, 0.000000) |e|*Ang

Total magnetic moment: -0.000064
Local magnetic moments:
   0 Sn 0.000022

Energy contributions relative to reference atoms: (reference = -168010.693307)

Kinetic:         +5.840942
Potential:       -5.733330
External:        +0.000000
XC:              -4.030170
Entropy (-ST):   -0.003487
Local:           +0.123548
--------------------------
Free energy:     -3.802496
Extrapolated:    -3.800753

Spin contamination: 0.000034 electrons
Fermi level: 7.13792

Warning: Showing only first 2 kpts
                      Up                     Down
 Kpt  Band  Eigenvalues  Occupancy  Eigenvalues  Occupancy
  0     5     -3.73644    0.01172     -3.73648    0.01172
  0     6     13.93873    0.00000     13.93871    0.00000
  0     7     14.16268    0.00000     14.16266    0.00000
  0     8     14.16278    0.00000     14.16276    0.00000

  1     5     -3.40039    0.01562     -3.40043    0.01562
  1     6     11.76229    0.00000     11.76226    0.00000
  1     7     13.38700    0.00000     13.38697    0.00000
  1     8     13.38733    0.00000     13.38730    0.00000


Input parameters:
  convergence: {bands: all}
  eigensolver: {name: cg,
                niter: 5}
  fixdensity: True
  kpts: {npoints: 50,
         path: GHNGP}
  nbands: -4
  symmetry: off

Initialize ...

Sn-setup:
  name: Tin
  id: d1329c6b410f1e0bd923643368775dcd
  Z: 50
  valence: 14
  core: 36
  charge: 0.0
  file: /usr/share/gpaw-setups/Sn.PBE.gz
  cutoffs: 1.20(comp), 2.23(filt), 2.35(core), lmax=2
  valence states:
                energy  radius
    5s(2.00)   -10.538   1.201
    5p(2.00)    -3.696   1.270
    4d(10.00)   -25.845   1.185
    *s          16.674   1.201
    *p          23.515   1.270
    *d           1.367   1.185

  Using partial waves for Sn as LCAO basis

Reference energy: -168010.693307

Spin-polarized calculation.
Magnetic moment:  0.000000

Occupation numbers:
  Fixed Fermi level
  Fermi-Dirac: width=0.0200 eV

Convergence criteria:
  Maximum total energy change: 0.0005 eV / electron
  Maximum integral of absolute density change: 0.0001 electrons
  Maximum integral of absolute eigenstate change: 4e-08 eV^2
  Maximum number of iterations: 1500

Symmetries present (total): 1

  ( 1  0  0)
  ( 0  1  0)
  ( 0  0  1)

50 k-points
50 k-points in the irreducible part of the Brillouin zone
       k-points in crystal coordinates                weights
   0:     0.00000000    0.00000000    0.00000000          1/50
   1:     0.03571429   -0.03571429    0.03571429          1/50
   2:     0.07142857   -0.07142857    0.07142857          1/50
   3:     0.10714286   -0.10714286    0.10714286          1/50
   4:     0.14285714   -0.14285714    0.14285714          1/50
   5:     0.17857143   -0.17857143    0.17857143          1/50
   6:     0.21428571   -0.21428571    0.21428571          1/50
   7:     0.25000000   -0.25000000    0.25000000          1/50
   8:     0.28571429   -0.28571429    0.28571429          1/50
   9:     0.32142857   -0.32142857    0.32142857          1/50
          ...
  49:     0.25000000    0.25000000    0.25000000          1/50

Wave functions: Plane wave expansion
  Cutoff energy: 400.000 eV
  Number of coefficients (min, max): 484, 531
  Using FFTW library
  Eigensolver: None  MatrixOperator buffer_size: default value or 
                              see value of nblock in input file
Diagonalizer layout: Serial LAPACKOrthonormalizer layout: Serial LAPACK 

CG(niter=5, rtol=3.0e-01) 

No density mixing

Memory estimate:
  Process memory now: 991.55 MiB
  Calculator: 14.32 MiB
    Density: 1.30 MiB
      Arrays: 0.46 MiB
      Localized functions: 0.26 MiB
      Mixer: 0.58 MiB
    Hamiltonian: 0.35 MiB
      Arrays: 0.34 MiB
      XC: 0.00 MiB
      Poisson: 0.00 MiB
      vbar: 0.01 MiB
    Wavefunctions: 12.68 MiB
      Arrays psit_nG: 8.91 MiB
      Eigensolver: 0.13 MiB
      Projections: 0.30 MiB
      Projectors: 2.89 MiB
      Overlap op: 0.09 MiB
      PW-descriptor: 0.35 MiB

Total number of cores used: 1

Number of atoms: 1
Number of atomic orbitals: 9
Number of bands in calculation: 11
Bands to converge: all
Number of valence electrons: 14

... initialized

Initializing position-dependent things.

Creating initial wave functions:
  9 bands from LCAO basis set
  2 bands from random numbers

                
                
                
       Sn       
                
                
                
                

Positions:
   0 Sn     0.000000    0.000000    0.000000

Unit cell:
           periodic     x           y           z      points  spacing
  1. axis:    yes   -1.904500    1.904500    1.904500    12     0.2244
  2. axis:    yes    1.904500   -1.904500    1.904500    12     0.2244
  3. axis:    yes    1.904500    1.904500   -1.904500    12     0.2244

  Lengths:   3.298691   3.298691   3.298691
  Angles:  109.471221 109.471221 109.471221

Effective grid spacing dv^(1/3) = 0.2519

                     log10-error:    total        iterations:
           time      wfs    density  energy       fermi  poisson  magmom
iter:   1  01:41:36  +3.48           -3.330875    22              +0.0000
iter:   2  01:41:40  +2.51           -3.392695    25              +0.0000
iter:   3  01:41:45  +1.41           -3.399557    22              -0.0000
iter:   4  01:41:50  +0.60           -3.400570    25              -0.0000
iter:   5  01:41:55  -0.11           -3.400695    23              -0.0000
iter:   6  01:42:02  -1.04           -3.400730    26              -0.0000
iter:   7  01:42:08  -1.60           -3.400733    24              -0.0000
iter:   8  01:42:14  -1.97           -3.400733    25              -0.0000
iter:   9  01:42:18  -2.93           -3.400733    24              -0.0000
iter:  10  01:42:22  -3.41           -3.400733    24              -0.0000
iter:  11  01:42:24  -3.84           -3.400733    24              -0.0000
iter:  12  01:42:26  -4.47           -3.400733    24              -0.0000
iter:  13  01:42:27  -4.82           -3.400733    24              -0.0000
iter:  14  01:42:29  -5.30           -3.400733    24              -0.0000
iter:  15  01:42:30  -5.59           -3.400733    24              -0.0000
iter:  16  01:42:31  -5.42           -3.400733    24              -0.0000
iter:  17  01:42:32  -5.72           -3.400733    24              -0.0000
iter:  18  01:42:33  -5.99           -3.400733    24              -0.0000
iter:  19  01:42:34  -5.46           -3.400733    24              -0.0000
iter:  20  01:42:35  -6.09           -3.400733    24              -0.0000
iter:  21  01:42:36  -6.05           -3.400733    24              -0.0000
iter:  22  01:42:37  -5.60           -3.400733    24              -0.0000
iter:  23  01:42:38  -5.66           -3.400733    24              -0.0000
iter:  24  01:42:39  -5.76           -3.400733    24              -0.0000
iter:  25  01:42:39  -5.76           -3.400733    24              -0.0000
iter:  26  01:42:40  -5.85           -3.400733    24              -0.0000
iter:  27  01:42:41  -5.55           -3.400733    24              -0.0000
iter:  28  01:42:42  -5.91           -3.400733    24              -0.0000
iter:  29  01:42:43  -5.01           -3.400733    24              -0.0000
iter:  30  01:42:44  -4.79           -3.400733    24              -0.0000
iter:  31  01:42:45  -4.40           -3.400733    24              -0.0000
iter:  32  01:42:46  -5.36           -3.400733    24              -0.0000
iter:  33  01:42:47  -5.54           -3.400733    24              -0.0000
iter:  34  01:42:48  -5.50           -3.400733    24              -0.0000
iter:  35  01:42:49  -5.42           -3.400733    24              -0.0000
iter:  36  01:42:50  -5.92           -3.400733    24              -0.0000
iter:  37  01:42:51  -5.36           -3.400733    24              -0.0000
iter:  38  01:42:52  -5.26           -3.400733    24              -0.0000
iter:  39  01:42:53  -4.90           -3.400733    24              -0.0000
iter:  40  01:42:54  -5.63           -3.400733    24              -0.0000
iter:  41  01:42:55  -5.92           -3.400733    24              -0.0000
iter:  42  01:42:55  -5.56           -3.400733    24              -0.0000
iter:  43  01:42:56  -5.96           -3.400733    24              -0.0000
iter:  44  01:42:57  -6.08           -3.400733    24              -0.0000
iter:  45  01:42:58  -5.74           -3.400733    24              -0.0000
iter:  46  01:42:59  -5.42           -3.400733    24              -0.0000
iter:  47  01:43:00  -5.70           -3.400733    24              -0.0000
iter:  48  01:43:01  -4.85           -3.400733    24              -0.0000
iter:  49  01:43:02  -5.78           -3.400733    24              -0.0000
iter:  50  01:43:03  -5.75           -3.400733    24              -0.0000
iter:  51  01:43:04  -5.96           -3.400733    24              -0.0000
iter:  52  01:43:05  -6.07           -3.400733    24              -0.0000
iter:  53  01:43:06  -6.01           -3.400733    24              -0.0000
iter:  54  01:43:07  -5.59           -3.400733    24              -0.0000
iter:  55  01:43:08  -5.97           -3.400733    24              -0.0000
iter:  56  01:43:09  -5.46           -3.400733    24              -0.0000
iter:  57  01:43:10  -5.87           -3.400733    24              -0.0000
iter:  58  01:43:11  -5.74           -3.400733    24              -0.0000
iter:  59  01:43:11  -5.85           -3.400733    24              -0.0000
iter:  60  01:43:12  -4.68           -3.400733    24              -0.0000
iter:  61  01:43:13  -4.82           -3.400733    24              -0.0000
iter:  62  01:43:14  -5.37           -3.400733    24              -0.0000
iter:  63  01:43:15  -5.71           -3.400733    24              -0.0000
iter:  64  01:43:16  -5.75           -3.400733    24              -0.0000
iter:  65  01:43:17  -5.75           -3.400733    24              -0.0000
iter:  66  01:43:18  -5.85           -3.400733    24              -0.0000
iter:  67  01:43:19  -6.06           -3.400733    24              -0.0000
iter:  68  01:43:20  -5.36           -3.400733    24              -0.0000
iter:  69  01:43:21  -5.70           -3.400733    24              -0.0000
iter:  70  01:43:22  -6.03           -3.400733    24              -0.0000
iter:  71  01:43:23  -6.30           -3.400733    24              -0.0000
iter:  72  01:43:24  -5.99           -3.400733    24              -0.0000
iter:  73  01:43:25  -5.75           -3.400733    24              -0.0000
iter:  74  01:43:25  -6.05           -3.400733    24              -0.0000
iter:  75  01:43:26  -5.54           -3.400733    24              -0.0000
iter:  76  01:43:27  -5.36           -3.400733    24              -0.0000
iter:  77  01:43:28  -5.68           -3.400733    24              -0.0000
iter:  78  01:43:29  -5.91           -3.400733    24              -0.0000
iter:  79  01:43:30  -6.27           -3.400733    24              -0.0000
iter:  80  01:43:31  -5.98           -3.400733    24              -0.0000
iter:  81  01:43:32  -5.93           -3.400733    24              -0.0000
iter:  82  01:43:33  -5.83           -3.400733    24              -0.0000
iter:  83  01:43:34  -6.17           -3.400733    24              -0.0000
iter:  84  01:43:35  -5.29           -3.400733    24              -0.0000
iter:  85  01:43:36  -5.76           -3.400733    24              -0.0000
iter:  86  01:43:37  -5.90           -3.400733    24              -0.0000
iter:  87  01:43:38  -5.79           -3.400733    24              -0.0000
iter:  88  01:43:39  -5.71           -3.400733    24              -0.0000
iter:  89  01:43:40  -5.44           -3.400733    24              -0.0000
iter:  90  01:43:40  -5.82           -3.400733    24              -0.0000
iter:  91  01:43:41  -5.76           -3.400733    24              -0.0000
iter:  92  01:43:42  -6.18           -3.400733    24              -0.0000
iter:  93  01:43:43  -6.39           -3.400733    24              -0.0000
iter:  94  01:43:44  -5.79           -3.400733    24              -0.0000
iter:  95  01:43:45  -4.97           -3.400733    24              -0.0000
iter:  96  01:43:46  -5.74           -3.400733    24              -0.0000
iter:  97  01:43:47  -6.08           -3.400733    24              -0.0000
iter:  98  01:43:48  -5.72           -3.400733    24              -0.0000
iter:  99  01:43:49  -5.89           -3.400733    24              -0.0000
iter: 100  01:43:50  -5.42           -3.400733    24              -0.0000
iter: 101  01:43:51  -6.10           -3.400733    24              -0.0000
iter: 102  01:43:52  -5.57           -3.400733    24              -0.0000
iter: 103  01:43:53  -5.51           -3.400733    24              -0.0000
iter: 104  01:43:54  -5.78           -3.400733    24              -0.0000
iter: 105  01:43:55  -5.58           -3.400733    24              -0.0000
iter: 106  01:43:56  -5.36           -3.400733    24              -0.0000
iter: 107  01:43:56  -6.13           -3.400733    24              -0.0000
iter: 108  01:43:57  -6.12           -3.400733    24              -0.0000
iter: 109  01:43:58  -5.72           -3.400733    24              -0.0000
iter: 110  01:43:59  -6.34           -3.400733    24              -0.0000
iter: 111  01:44:00  -5.88           -3.400733    24              -0.0000
iter: 112  01:44:01  -6.09           -3.400733    24              -0.0000
iter: 113  01:44:02  -6.32           -3.400733    24              -0.0000
iter: 114  01:44:03  -6.31           -3.400733    24              -0.0000
iter: 115  01:44:04  -6.22           -3.400733    24              -0.0000
iter: 116  01:44:05  -6.02           -3.400733    24              -0.0000
iter: 117  01:44:06  -6.31           -3.400733    24              -0.0000
iter: 118  01:44:07  -5.80           -3.400733    24              -0.0000
iter: 119  01:44:08  -6.22           -3.400733    24              -0.0000
iter: 120  01:44:09  -5.90           -3.400733    24              -0.0000
iter: 121  01:44:10  -6.53           -3.400733    24              -0.0000
iter: 122  01:44:11  -6.46           -3.400733    24              -0.0000
iter: 123  01:44:12  -5.52           -3.400733    24              -0.0000
iter: 124  01:44:13  -6.04           -3.400733    24              -0.0000
iter: 125  01:44:14  -6.61           -3.400733    24              -0.0000
iter: 126  01:44:15  -5.76           -3.400733    24              -0.0000
iter: 127  01:44:15  -6.47           -3.400733    24              -0.0000
iter: 128  01:44:16  -5.71           -3.400733    24              -0.0000
iter: 129  01:44:17  -4.58           -3.400733    24              -0.0000
iter: 130  01:44:18  -5.91           -3.400733    24              -0.0000
iter: 131  01:44:19  -4.87           -3.400733    24              -0.0000
iter: 132  01:44:20  -5.69           -3.400733    24              -0.0000
iter: 133  01:44:21  -6.61           -3.400733    24              -0.0000
iter: 134  01:44:22  -6.41           -3.400733    24              -0.0000
iter: 135  01:44:23  -6.42           -3.400733    24              -0.0000
iter: 136  01:44:24  -6.00           -3.400733    24              -0.0000
iter: 137  01:44:25  -6.31           -3.400733    24              -0.0000
iter: 138  01:44:26  -6.47           -3.400733    24              -0.0000
iter: 139  01:44:27  -6.26           -3.400733    24              -0.0000
iter: 140  01:44:28  -5.83           -3.400733    24              -0.0000
iter: 141  01:44:29  -6.57           -3.400733    24              -0.0000
iter: 142  01:44:30  -6.36           -3.400733    24              -0.0000
iter: 143  01:44:31  -6.29           -3.400733    24              -0.0000
iter: 144  01:44:32  -6.36           -3.400733    24              -0.0000
iter: 145  01:44:33  -6.63           -3.400733    24              -0.0000
iter: 146  01:44:34  -6.51           -3.400733    24              -0.0000
iter: 147  01:44:35  -6.50           -3.400733    24              -0.0000
iter: 148  01:44:35  -6.54           -3.400733    24              -0.0000
iter: 149  01:44:36  -6.60           -3.400733    24              -0.0000
iter: 150  01:44:37  -6.38           -3.400733    24              -0.0000
iter: 151  01:44:38  -6.35           -3.400733    24              -0.0000
iter: 152  01:44:39  -6.44           -3.400733    24              -0.0000
iter: 153  01:44:40  -6.66           -3.400733    24              -0.0000
iter: 154  01:44:41  -6.55           -3.400733    24              -0.0000
iter: 155  01:44:42  -6.35           -3.400733    24              -0.0000
iter: 156  01:44:43  -6.57           -3.400733    24              -0.0000
iter: 157  01:44:44  -6.53           -3.400733    24              -0.0000
iter: 158  01:44:45  -6.43           -3.400733    24              -0.0000
iter: 159  01:44:46  -6.48           -3.400733    24              -0.0000
iter: 160  01:44:47  -6.56           -3.400733    24              -0.0000
iter: 161  01:44:48  -6.57           -3.400733    24              -0.0000
iter: 162  01:44:49  -5.82           -3.400733    24              -0.0000
iter: 163  01:44:50  -6.44           -3.400733    24              -0.0000
iter: 164  01:44:51  -6.10           -3.400733    24              -0.0000
iter: 165  01:44:52  -6.20           -3.400733    24              -0.0000
iter: 166  01:44:52  -6.57           -3.400733    24              -0.0000
iter: 167  01:44:53  -6.54           -3.400733    24              -0.0000
iter: 168  01:44:54  -6.55           -3.400733    24              -0.0000
iter: 169  01:44:55  -6.53           -3.400733    24              -0.0000
iter: 170  01:44:56  -6.43           -3.400733    24              -0.0000
iter: 171  01:44:57  -6.32           -3.400733    24              -0.0000
iter: 172  01:44:58  -6.51           -3.400733    24              -0.0000
iter: 173  01:44:59  -6.79           -3.400733    24              -0.0000
iter: 174  01:45:00  -5.97           -3.400733    24              -0.0000
iter: 175  01:45:01  -6.80           -3.400733    24              -0.0000
iter: 176  01:45:02  -6.52           -3.400733    24              -0.0000
iter: 177  01:45:03  -6.79           -3.400733    24              -0.0000
iter: 178  01:45:04  -5.62           -3.400733    24              -0.0000
iter: 179  01:45:05  -6.32           -3.400733    24              -0.0000
iter: 180  01:45:06  -6.26           -3.400733    24              -0.0000
iter: 181  01:45:06  -6.57           -3.400733    24              -0.0000
iter: 182  01:45:07  -6.56           -3.400733    24              -0.0000
iter: 183  01:45:08  -6.61           -3.400733    24              -0.0000
iter: 184  01:45:09  -6.02           -3.400733    24              -0.0000
iter: 185  01:45:10  -6.64           -3.400733    24              -0.0000
iter: 186  01:45:11  -6.47           -3.400733    24              -0.0000
iter: 187  01:45:12  -6.29           -3.400733    24              -0.0000
iter: 188  01:45:13  -6.44           -3.400733    24              -0.0000
iter: 189  01:45:14  -6.70           -3.400733    24              -0.0000
iter: 190  01:45:15  -6.45           -3.400733    24              -0.0000
iter: 191  01:45:16  -6.69           -3.400733    24              -0.0000
iter: 192  01:45:17  -6.58           -3.400733    24              -0.0000
iter: 193  01:45:18  -6.75           -3.400733    24              -0.0000
iter: 194  01:45:19  -6.60           -3.400733    24              -0.0000
iter: 195  01:45:20  -6.92           -3.400733    24              -0.0000
iter: 196  01:45:20  -6.65           -3.400733    24              -0.0000
iter: 197  01:45:21  -6.65           -3.400733    24              -0.0000
iter: 198  01:45:22  -6.61           -3.400733    24              -0.0000
iter: 199  01:45:23  -6.02           -3.400733    24              -0.0000
iter: 200  01:45:24  -6.67           -3.400733    24              -0.0000
iter: 201  01:45:25  -6.78           -3.400733    24              -0.0000
iter: 202  01:45:26  -6.53           -3.400733    24              -0.0000
iter: 203  01:45:27  -6.13           -3.400733    24              -0.0000
iter: 204  01:45:28  -6.00           -3.400733    24              -0.0000
iter: 205  01:45:29  -6.78           -3.400733    24              -0.0000
iter: 206  01:45:30  -6.63           -3.400733    24              -0.0000
iter: 207  01:45:31  -6.14           -3.400733    24              -0.0000
iter: 208  01:45:32  -6.33           -3.400733    24              -0.0000
iter: 209  01:45:33  -6.83           -3.400733    24              -0.0000
iter: 210  01:45:34  -6.54           -3.400733    24              -0.0000
iter: 211  01:45:35  -6.53           -3.400733    24              -0.0000
iter: 212  01:45:35  -6.72           -3.400733    24              -0.0000
iter: 213  01:45:36  -6.64           -3.400733    24              -0.0000
iter: 214  01:45:37  -5.99           -3.400733    24              -0.0000
iter: 215  01:45:38  -6.30           -3.400733    24              -0.0000
iter: 216  01:45:39  -6.05           -3.400733    24              -0.0000
iter: 217  01:45:40  -6.45           -3.400733    24              -0.0000
iter: 218  01:45:41  -6.60           -3.400733    24              -0.0000
iter: 219  01:45:42  -6.94           -3.400733    24              -0.0000
iter: 220  01:45:43  -6.62           -3.400733    24              -0.0000
iter: 221  01:45:44  -6.92           -3.400733    24              -0.0000
iter: 222  01:45:45  -6.42           -3.400733    24              -0.0000
iter: 223  01:45:46  -6.96           -3.400733    24              -0.0000
iter: 224  01:45:47  -6.52           -3.400733    24              -0.0000
iter: 225  01:45:48  -6.84           -3.400733    24              -0.0000
iter: 226  01:45:49  -6.54           -3.400733    24              -0.0000
iter: 227  01:45:50  -6.87           -3.400733    24              -0.0000
iter: 228  01:45:50  -6.66           -3.400733    24              -0.0000
iter: 229  01:45:51  -6.31           -3.400733    24              -0.0000
iter: 230  01:45:52  -6.63           -3.400733    24              -0.0000
iter: 231  01:45:53  -6.73           -3.400733    24              -0.0000
iter: 232  01:45:54  -5.75           -3.400733    24              -0.0000
iter: 233  01:45:55  -6.19           -3.400733    24              -0.0000
iter: 234  01:45:56  -5.52           -3.400733    24              -0.0000
iter: 235  01:45:57  -5.41           -3.400733    24              -0.0000
iter: 236  01:45:58  -6.33           -3.400733    24              -0.0000
iter: 237  01:45:59  -6.68           -3.400733    24              -0.0000
iter: 238  01:46:00  -6.79           -3.400733    24              -0.0000
iter: 239  01:46:01  -6.65           -3.400733    24              -0.0000
iter: 240  01:46:02  -6.74           -3.400733    24              -0.0000
iter: 241  01:46:03  -6.04           -3.400733    24              -0.0000
iter: 242  01:46:04  -6.69           -3.400733    24              -0.0000
iter: 243  01:46:04  -6.83           -3.400733    24              -0.0000
iter: 244  01:46:05  -6.79           -3.400733    24              -0.0000
iter: 245  01:46:06  -6.65           -3.400733    24              -0.0000
iter: 246  01:46:07  -6.74           -3.400733    24              -0.0000
iter: 247  01:46:08  -6.37           -3.400733    24              -0.0000
iter: 248  01:46:09  -6.69           -3.400733    24              -0.0000
iter: 249  01:46:10  -6.50           -3.400733    24              -0.0000
iter: 250  01:46:11  -6.52           -3.400733    24              -0.0000
iter: 251  01:46:12  -6.61           -3.400733    24              -0.0000
iter: 252  01:46:13  -6.54           -3.400733    24              -0.0000
iter: 253  01:46:14  -6.93           -3.400733    24              -0.0000
iter: 254  01:46:15  -6.50           -3.400733    24              -0.0000
iter: 255  01:46:16  -6.94           -3.400733    24              -0.0000
iter: 256  01:46:17  -6.83           -3.400733    24              -0.0000
iter: 257  01:46:18  -6.53           -3.400733    24              -0.0000
iter: 258  01:46:19  -6.75           -3.400733    24              -0.0000
iter: 259  01:46:19  -6.73           -3.400733    24              -0.0000
iter: 260  01:46:20  -6.11           -3.400733    24              -0.0000
iter: 261  01:46:21  -6.89           -3.400733    24              -0.0000
iter: 262  01:46:22  -6.68           -3.400733    24              -0.0000
iter: 263  01:46:23  -7.07           -3.400733    24              -0.0000
iter: 264  01:46:24  -6.86           -3.400733    24              -0.0000
iter: 265  01:46:25  -6.53           -3.400733    24              -0.0000
iter: 266  01:46:26  -6.79           -3.400733    24              -0.0000
iter: 267  01:46:27  -6.49           -3.400733    24              -0.0000
iter: 268  01:46:28  -6.54           -3.400733    24              -0.0000
iter: 269  01:46:29  -6.83           -3.400733    24              -0.0000
iter: 270  01:46:30  -6.82           -3.400733    24              -0.0000
iter: 271  01:46:31  -7.11           -3.400733    24              -0.0000
iter: 272  01:46:32  -6.69           -3.400733    24              -0.0000
iter: 273  01:46:33  -6.46           -3.400733    24              -0.0000
iter: 274  01:46:34  -6.72           -3.400733    24              -0.0000
iter: 275  01:46:35  -6.91           -3.400733    24              -0.0000
iter: 276  01:46:36  -6.32           -3.400733    24              -0.0000
iter: 277  01:46:36  -6.18           -3.400733    24              -0.0000
iter: 278  01:46:37  -6.86           -3.400733    24              -0.0000
iter: 279  01:46:38  -7.09           -3.400733    24              -0.0000
iter: 280  01:46:39  -6.33           -3.400733    24              -0.0000
iter: 281  01:46:40  -6.62           -3.400733    24              -0.0000
iter: 282  01:46:41  -6.87           -3.400733    24              -0.0000
iter: 283  01:46:42  -6.73           -3.400733    24              -0.0000
iter: 284  01:46:43  -6.95           -3.400733    24              -0.0000
iter: 285  01:46:44  -7.09           -3.400733    24              -0.0000
iter: 286  01:46:45  -6.92           -3.400733    24              -0.0000
iter: 287  01:46:46  -7.12           -3.400733    24              -0.0000
iter: 288  01:46:47  -6.94           -3.400733    24              -0.0000
iter: 289  01:46:48  -6.72           -3.400733    24              -0.0000
iter: 290  01:46:49  -6.96           -3.400733    24              -0.0000
iter: 291  01:46:50  -7.05           -3.400733    24              -0.0000
iter: 292  01:46:51  -6.77           -3.400733    24              -0.0000
iter: 293  01:46:52  -6.92           -3.400733    24              -0.0000
iter: 294  01:46:53  -6.98           -3.400733    24              -0.0000
iter: 295  01:46:54  -6.32           -3.400733    24              -0.0000
iter: 296  01:46:55  -6.81           -3.400733    24              -0.0000
iter: 297  01:46:55  -6.92           -3.400733    24              -0.0000
iter: 298  01:46:56  -6.90           -3.400733    24              -0.0000
iter: 299  01:46:57  -7.15           -3.400733    24              -0.0000
iter: 300  01:46:58  -6.91           -3.400733    24              -0.0000
iter: 301  01:46:59  -6.99           -3.400733    24              -0.0000
iter: 302  01:47:00  -6.93           -3.400733    24              -0.0000
iter: 303  01:47:01  -6.81           -3.400733    24              -0.0000
iter: 304  01:47:02  -6.93           -3.400733    24              -0.0000
iter: 305  01:47:03  -7.04           -3.400733    24              -0.0000
iter: 306  01:47:04  -6.92           -3.400733    24              -0.0000
iter: 307  01:47:05  -6.65           -3.400733    24              -0.0000
iter: 308  01:47:06  -6.99           -3.400733    24              -0.0000
iter: 309  01:47:07  -7.12           -3.400733    24              -0.0000
iter: 310  01:47:08  -6.95           -3.400733    24              -0.0000
iter: 311  01:47:09  -6.86           -3.400733    24              -0.0000
iter: 312  01:47:10  -6.97           -3.400733    24              -0.0000
iter: 313  01:47:11  -7.19           -3.400733    24              -0.0000
iter: 314  01:47:11  -6.46           -3.400733    24              -0.0000
iter: 315  01:47:12  -6.90           -3.400733    24              -0.0000
iter: 316  01:47:13  -6.89           -3.400733    24              -0.0000
iter: 317  01:47:14  -7.17           -3.400733    24              -0.0000
iter: 318  01:47:15  -6.80           -3.400733    24              -0.0000
iter: 319  01:47:16  -7.04           -3.400733    24              -0.0000
iter: 320  01:47:17  -6.82           -3.400733    24              -0.0000
iter: 321  01:47:18  -6.80           -3.400733    24              -0.0000
iter: 322  01:47:19  -6.93           -3.400733    24              -0.0000
iter: 323  01:47:20  -7.18           -3.400733    24              -0.0000
iter: 324  01:47:21  -6.62           -3.400733    24              -0.0000
iter: 325  01:47:22  -6.74           -3.400733    24              -0.0000
iter: 326  01:47:23  -6.70           -3.400733    24              -0.0000
iter: 327  01:47:24  -6.90           -3.400733    24              -0.0000
iter: 328  01:47:25  -6.91           -3.400733    24              -0.0000
iter: 329  01:47:26  -6.90           -3.400733    24              -0.0000
iter: 330  01:47:27  -6.77           -3.400733    24              -0.0000
iter: 331  01:47:28  -6.99           -3.400733    24              -0.0000
iter: 332  01:47:28  -6.93           -3.400733    24              -0.0000
iter: 333  01:47:29  -7.03           -3.400733    24              -0.0000
iter: 334  01:47:30  -7.01           -3.400733    24              -0.0000
iter: 335  01:47:31  -7.08           -3.400733    24              -0.0000
iter: 336  01:47:32  -7.01           -3.400733    24              -0.0000
iter: 337  01:47:33  -7.16           -3.400733    24              -0.0000
iter: 338  01:47:34  -6.52           -3.400733    24              -0.0000
iter: 339  01:47:35  -7.03           -3.400733    24              -0.0000
iter: 340  01:47:36  -6.49           -3.400733    24              -0.0000
iter: 341  01:47:37  -6.29           -3.400733    24              -0.0000
iter: 342  01:47:38  -6.80           -3.400733    24              -0.0000
iter: 343  01:47:39  -7.33           -3.400733    24              -0.0000
iter: 344  01:47:40  -6.65           -3.400733    24              -0.0000
iter: 345  01:47:41  -6.34           -3.400733    24              -0.0000
iter: 346  01:47:42  -6.74           -3.400733    24              -0.0000
iter: 347  01:47:43  -7.12           -3.400733    24              -0.0000
iter: 348  01:47:44  -6.77           -3.400733    24              -0.0000
iter: 349  01:47:45  -7.24           -3.400733    24              -0.0000
iter: 350  01:47:45  -7.08           -3.400733    24              -0.0000
iter: 351  01:47:46  -7.16           -3.400733    24              -0.0000
iter: 352  01:47:47  -7.09           -3.400733    24              -0.0000
iter: 353  01:47:48  -7.16           -3.400733    24              -0.0000
iter: 354  01:47:49  -7.05           -3.400733    24              -0.0000
iter: 355  01:47:50  -7.28           -3.400733    24              -0.0000
iter: 356  01:47:51  -6.87           -3.400733    24              -0.0000
iter: 357  01:47:52  -7.03           -3.400733    24              -0.0000
iter: 358  01:47:53  -7.05           -3.400733    24              -0.0000
iter: 359  01:47:54  -6.93           -3.400733    24              -0.0000
iter: 360  01:47:55  -7.00           -3.400733    24              -0.0000
iter: 361  01:47:56  -7.05           -3.400733    24              -0.0000
iter: 362  01:47:57  -7.00           -3.400733    24              -0.0000
iter: 363  01:47:58  -7.27           -3.400733    24              -0.0000
iter: 364  01:47:59  -7.07           -3.400733    24              -0.0000
iter: 365  01:48:00  -7.32           -3.400733    24              -0.0000
iter: 366  01:48:01  -7.02           -3.400733    24              -0.0000
iter: 367  01:48:02  -7.06           -3.400733    24              -0.0000
iter: 368  01:48:03  -6.37           -3.400733    24              -0.0000
iter: 369  01:48:03  -6.86           -3.400733    24              -0.0000
iter: 370  01:48:04  -6.97           -3.400733    24              -0.0000
iter: 371  01:48:05  -7.40           -3.400733    24              -0.0000
iter: 372  01:48:06  -7.03           -3.400733    24              -0.0000
iter: 373  01:48:07  -7.40           -3.400733    24              -0.0000
iter: 374  01:48:08  -6.97           -3.400733    24              -0.0000
iter: 375  01:48:09  -7.28           -3.400733    24              -0.0000
iter: 376  01:48:10  -6.99           -3.400733    24              -0.0000
iter: 377  01:48:11  -7.35           -3.400733    24              -0.0000
iter: 378  01:48:12  -7.02           -3.400733    24              -0.0000
iter: 379  01:48:13  -7.07           -3.400733    24              -0.0000
iter: 380  01:48:14  -7.06           -3.400733    24              -0.0000
iter: 381  01:48:15  -7.41           -3.400733    24              -0.0000

Converged after 381 iterations.

Dipole moment: (-0.000000, 0.000000, 0.000000) |e|*Ang

Total magnetic moment: -0.000000
Local magnetic moments:
   0 Sn 0.000022

Energy contributions relative to reference atoms: (reference = -168010.693307)

Kinetic:         +6.237549
Potential:       -5.732355
External:        +0.000000
XC:              -4.029271
Entropy (-ST):   -0.000033
Local:           +0.123361
--------------------------
Free energy:     -3.400750
Extrapolated:    -3.400733

Spin contamination: 0.000034 electrons
Fixed Fermi level: 7.13792

Warning: Showing only first 2 kpts
                      Up                     Down
 Kpt  Band  Eigenvalues  Occupancy  Eigenvalues  Occupancy
  0     5     -3.90421    0.02000     -3.90425    0.02000
  0     6     14.85282    0.00000     14.85280    0.00000
  0     7     14.85282    0.00000     14.85280    0.00000
  0     8     14.85393    0.00000     14.85391    0.00000

  1     5     -3.84943    0.02000     -3.84947    0.02000
  1     6     14.51878    0.00000     14.51876    0.00000
  1     7     14.61518    0.00000     14.61516    0.00000
  1     8     14.61560    0.00000     14.61558    0.00000


Timing:                              incl.     excl.
-----------------------------------------------------------
Hamiltonian:                         0.614     0.002   0.0% |
 Atomic:                             0.493     0.002   0.0% |
  XC Correction:                     0.491     0.491   0.1% |
 Calculate atomic Hamiltonians:      0.005     0.005   0.0% |
 Communicate:                        0.000     0.000   0.0% |
 Initialize Hamiltonian:             0.000     0.000   0.0% |
 Poisson:                            0.000     0.000   0.0% |
 XC 3D grid:                         0.113     0.113   0.0% |
LCAO initialization:                 2.018     0.120   0.0% |
 LCAO eigensolver:                   1.090     0.014   0.0% |
  Calculate projections:             0.004     0.004   0.0% |
  DenseAtomicCorrection:             0.025     0.025   0.0% |
  Distribute overlap matrix:         0.005     0.005   0.0% |
  Orbital Layouts:                   0.057     0.057   0.0% |
  Potential matrix:                  0.223     0.223   0.0% |
  Sum over cells:                    0.761     0.761   0.2% |
 LCAO to grid:                       0.443     0.443   0.1% |
 Set positions (LCAO WFS):           0.365     0.000   0.0% |
  Basic WFS set positions:           0.002     0.002   0.0% |
  Basis functions set positions:     0.000     0.000   0.0% |
  TCI: Calculate S, T, P:            0.362     0.362   0.1% |
PWDescriptor:                        0.019     0.019   0.0% |
Redistribute:                        0.000     0.000   0.0% |
SCF-cycle:                         442.440   113.584  25.4% |---------|
 CG:                               152.464   136.348  30.4% |-----------|
  CG: orthonormalize:               16.115     9.177   2.0% ||
   CG: overlap:                      4.530     4.530   1.0% |
   CG: overlap2:                     2.409     2.409   0.5% |
 Davidson:                          15.515     9.163   2.0% ||
  calc. matrices:                    3.933     3.933   0.9% |
  diagonalize:                       1.724     1.724   0.4% |
  rotate_psi:                        0.696     0.696   0.2% |
 Density:                            3.980     0.002   0.0% |
  Atomic density matrices:           0.192     0.192   0.0% |
  Mix:                               0.200     0.200   0.0% |
  Multipole moments:                 0.008     0.008   0.0% |
  Pseudo density:                    3.578     2.762   0.6% |
   Symmetrize density:               0.816     0.816   0.2% |
 Hamiltonian:                       10.202     0.020   0.0% |
  Atomic:                            8.419     0.033   0.0% |
   XC Correction:                    8.386     8.386   1.9% ||
  Calculate atomic Hamiltonians:     0.083     0.083   0.0% |
  Communicate:                       0.000     0.000   0.0% |
  Poisson:                           0.007     0.007   0.0% |
  XC 3D grid:                        1.672     1.672   0.4% |
 Orthonormalize:                     0.202     0.012   0.0% |
  Band Layouts:                      0.011     0.003   0.0% |
   Inverse Cholesky:                 0.008     0.008   0.0% |
  calc_s_matrix:                     0.034     0.034   0.0% |
  projections:                       0.115     0.115   0.0% |
  rotate_psi:                        0.031     0.031   0.0% |
 Residuals:                         37.847    37.847   8.4% |--|
 Subspace diag:                    108.645     4.894   1.1% |
  Band Layouts:                     13.231     1.362   0.3% |
   Diagonalize:                     10.869    10.869   2.4% ||
   Distribute results:               0.999     0.999   0.2% |
  calc_h_matrix:                    75.671    75.671  16.9% |------|
  rotate_psi:                       14.849    14.849   3.3% ||
Set symmetry:                        0.110     0.110   0.0% |
Other:                               2.694     2.694   0.6% |
-----------------------------------------------------------
Total:                                       447.896 100.0%

Date: Fri Feb 12 01:48:16 2021
element =  Sn
struct =  bcc
kpts =  (8,8,8)
element =  Sn
configuration =  [Kr] 4d10 5s2 5p2
valence =  ['5s', '5p']
occupations =  {'5s': 2, '5p': 2}
nls =  5p
rNum =  600
lmax =  d
*******************************************
Starting confinement parameter optimization
Adjustable parameters and initial values:
  Sn_5p.r0 : 5.253439
  Sn_5s.r0 : 5.253439
  Sn_n.r0 : 7.880158
*******************************************

OPT_VAL: 5.25343862982666   5.25343862982666   7.88015794473999
VCONF:
  Sn_5p : PowerConfinement(r0=5.253439, s=2.000000)
  Sn_5s : PowerConfinement(r0=5.253439, s=2.000000)
  Sn_n : PowerConfinement(r0=7.880158, s=2.000000)
RESIDUAL: 0.0

OPT_VAL: 5.45343862982666   5.25343862982666   7.88015794473999
VCONF:
  Sn_5p : PowerConfinement(r0=5.453439, s=2.000000)
  Sn_5s : PowerConfinement(r0=5.253439, s=2.000000)
  Sn_n : PowerConfinement(r0=7.880158, s=2.000000)
RESIDUAL: 0.0

OPT_VAL: 5.25343862982666   5.45343862982666   7.88015794473999
VCONF:
  Sn_5p : PowerConfinement(r0=5.253439, s=2.000000)
  Sn_5s : PowerConfinement(r0=5.453439, s=2.000000)
  Sn_n : PowerConfinement(r0=7.880158, s=2.000000)
RESIDUAL: 0.0

OPT_VAL: 5.25343862982666   5.25343862982666   8.08015794473999
VCONF:
  Sn_5p : PowerConfinement(r0=5.253439, s=2.000000)
  Sn_5s : PowerConfinement(r0=5.253439, s=2.000000)
  Sn_n : PowerConfinement(r0=8.080158, s=2.000000)
RESIDUAL: 0.0

OPT_VAL: 5.278438629826661   5.25343862982666   7.88015794473999
VCONF:
  Sn_5p : PowerConfinement(r0=5.278439, s=2.000000)
  Sn_5s : PowerConfinement(r0=5.253439, s=2.000000)
  Sn_n : PowerConfinement(r0=7.880158, s=2.000000)
RESIDUAL: 0.0

OPT_VAL: 5.25343862982666   5.278438629826661   7.88015794473999
VCONF:
  Sn_5p : PowerConfinement(r0=5.253439, s=2.000000)
  Sn_5s : PowerConfinement(r0=5.278439, s=2.000000)
  Sn_n : PowerConfinement(r0=7.880158, s=2.000000)
RESIDUAL: 0.0

OPT_VAL: 5.25343862982666   5.25343862982666   7.90515794473999
VCONF:
  Sn_5p : PowerConfinement(r0=5.253439, s=2.000000)
  Sn_5s : PowerConfinement(r0=5.253439, s=2.000000)
  Sn_n : PowerConfinement(r0=7.905158, s=2.000000)
RESIDUAL: 0.0

OPT_VAL: 5.25843862982666   5.25343862982666   7.88015794473999
VCONF:
  Sn_5p : PowerConfinement(r0=5.258439, s=2.000000)
  Sn_5s : PowerConfinement(r0=5.253439, s=2.000000)
  Sn_n : PowerConfinement(r0=7.880158, s=2.000000)
RESIDUAL: 0.0

OPT_VAL: 5.25343862982666   5.25843862982666   7.88015794473999
VCONF:
  Sn_5p : PowerConfinement(r0=5.253439, s=2.000000)
  Sn_5s : PowerConfinement(r0=5.258439, s=2.000000)
  Sn_n : PowerConfinement(r0=7.880158, s=2.000000)
RESIDUAL: 0.0

OPT_VAL: 5.25343862982666   5.25343862982666   7.88515794473999
VCONF:
  Sn_5p : PowerConfinement(r0=5.253439, s=2.000000)
  Sn_5s : PowerConfinement(r0=5.253439, s=2.000000)
  Sn_n : PowerConfinement(r0=7.885158, s=2.000000)
RESIDUAL: 0.0

*******************************************
Optimization finished after 10 iterations
Adjustable parameters and final values:
  Sn_5p.r0 : 5.253439
  Sn_5s.r0 : 5.253439
  Sn_n.r0 : 7.880158
*******************************************

VCONF:
  Sn_5p : PowerConfinement(r0=5.253439, s=2.000000)
  Sn_5s : PowerConfinement(r0=5.253439, s=2.000000)
  Sn_n : PowerConfinement(r0=7.880158, s=2.000000)
