
     Program PWSCF v.6.0 (svn rev. 13079) starts on 25Feb2021 at 11:38:22 

     This program is part of the open-source Quantum ESPRESSO suite
     for quantum simulation of materials; please cite
         "P. Giannozzi et al., J. Phys.:Condens. Matter 21 395502 (2009);
          URL http://www.quantum-espresso.org", 
     in publications or presentations arising from this work. More details at
     http://www.quantum-espresso.org/quote

     Parallel version (MPI), running on     1 processors
     Reading input from espresso.pwi
Warning: card &IONS ignored
Warning: card / ignored
Warning: card &CELL ignored
Warning: card / ignored

     Current dimensions of program PWSCF are:
     Max number of different atomic species (ntypx) = 10
     Max number of k-points (npk) =  40000
     Max angular momentum in pseudopotentials (lmaxx) =  3
     Message from routine input:
     WARNING: "startingwfc" set to atomic+random may spoil restart

     Atomic positions and unit cell read from directory:
     ./pwscf.save/


     IMPORTANT: XC functional enforced from input :
     Exchange-correlation      = PBE ( 1  4  3  4 0 0)
     Any further DFT definition will be discarded
     Please, verify this is what you really want


     Subspace diagonalization in iterative solution of the eigenvalue problem:
     a serial algorithm will be used


     G-vector sticks info
     --------------------
     sticks:   dense  smooth     PW     G-vecs:    dense   smooth      PW
     Sum         409     313    109                 5329     3839     725



     bravais-lattice index     =            0
     lattice parameter (alat)  =       5.4104  a.u.
     unit-cell volume          =     111.9902 (a.u.)^3
     number of atoms/cell      =            1
     number of atomic types    =            1
     number of electrons       =         3.00
     number of Kohn-Sham states=            6
     kinetic-energy cutoff     =      40.0000  Ry
     charge density cutoff     =     200.0000  Ry
     Exchange-correlation      = PBE ( 1  4  3  4 0 0)

     celldm(1)=   5.410428  celldm(2)=   0.000000  celldm(3)=   0.000000
     celldm(4)=   0.000000  celldm(5)=   0.000000  celldm(6)=   0.000000

     crystal axes: (cart. coord. in units of alat)
               a(1) = (   0.000000   0.707107   0.707107 )  
               a(2) = (   0.707107   0.000000   0.707107 )  
               a(3) = (   0.707107   0.707107   0.000000 )  

     reciprocal axes: (cart. coord. in units 2 pi/alat)
               b(1) = ( -0.707107  0.707107  0.707107 )  
               b(2) = (  0.707107 -0.707107  0.707107 )  
               b(3) = (  0.707107  0.707107 -0.707107 )  


     PseudoPot. # 1 for Al read from file:
     /home/inukai/tango/tests/1element/qe_fit_v2_Al/../pseudo/al_pbe_v1.uspp.F.UPF
     MD5 check sum: 0a6289f5291fc8f409219462bc851e1f
     Pseudo is Ultrasoft + core correction, Zval =  3.0
     Generated by new atomic code, or converted to UPF format
     Using radial grid of  893 points,  3 beta functions with: 
                l(1) =   0
                l(2) =   1
                l(3) =   2
     Q(r) pseudized with  8 coefficients,  rinner =    0.900   0.900   0.900
                                                       0.900   0.900

     atomic species   valence    mass     pseudopotential
        Al             3.00    26.98154     Al( 1.00)

     48 Sym. Ops., with inversion, found


                                    s                        frac. trans.

      isym =  1     identity                                     

 cryst.   s( 1) = (     1          0          0      )
                  (     0          1          0      )
                  (     0          0          1      )

 cart.    s( 1) = (  1.0000000  0.0000000  0.0000000 )
                  (  0.0000000  1.0000000  0.0000000 )
                  (  0.0000000  0.0000000  1.0000000 )


      isym =  2     180 deg rotation - cart. axis [0,0,1]        

 cryst.   s( 2) = (     0          1         -1      )
                  (     1          0         -1      )
                  (     0          0         -1      )

 cart.    s( 2) = ( -1.0000000  0.0000000  0.0000000 )
                  (  0.0000000 -1.0000000  0.0000000 )
                  (  0.0000000  0.0000000  1.0000000 )


      isym =  3     180 deg rotation - cart. axis [0,1,0]        

 cryst.   s( 3) = (     0         -1          1      )
                  (     0         -1          0      )
                  (     1         -1          0      )

 cart.    s( 3) = ( -1.0000000  0.0000000  0.0000000 )
                  (  0.0000000  1.0000000  0.0000000 )
                  (  0.0000000  0.0000000 -1.0000000 )


      isym =  4     180 deg rotation - cart. axis [1,0,0]        

 cryst.   s( 4) = (    -1          0          0      )
                  (    -1          0          1      )
                  (    -1          1          0      )

 cart.    s( 4) = (  1.0000000  0.0000000  0.0000000 )
                  (  0.0000000 -1.0000000  0.0000000 )
                  (  0.0000000  0.0000000 -1.0000000 )


      isym =  5     180 deg rotation - cart. axis [1,1,0]        

 cryst.   s( 5) = (    -1          0          1      )
                  (     0         -1          1      )
                  (     0          0          1      )

 cart.    s( 5) = (  0.0000000  1.0000000  0.0000000 )
                  (  1.0000000  0.0000000  0.0000000 )
                  (  0.0000000  0.0000000 -1.0000000 )


      isym =  6     180 deg rotation - cart. axis [1,-1,0]       

 cryst.   s( 6) = (     0         -1          0      )
                  (    -1          0          0      )
                  (     0          0         -1      )

 cart.    s( 6) = (  0.0000000 -1.0000000  0.0000000 )
                  ( -1.0000000  0.0000000  0.0000000 )
                  (  0.0000000  0.0000000 -1.0000000 )


      isym =  7      90 deg rotation - cart. axis [0,0,-1]       

 cryst.   s( 7) = (     0          1          0      )
                  (     0          1         -1      )
                  (    -1          1          0      )

 cart.    s( 7) = (  0.0000000  1.0000000  0.0000000 )
                  ( -1.0000000  0.0000000  0.0000000 )
                  (  0.0000000  0.0000000  1.0000000 )


      isym =  8      90 deg rotation - cart. axis [0,0,1]        

 cryst.   s( 8) = (     1          0         -1      )
                  (     1          0          0      )
                  (     1         -1          0      )

 cart.    s( 8) = (  0.0000000 -1.0000000  0.0000000 )
                  (  1.0000000  0.0000000  0.0000000 )
                  (  0.0000000  0.0000000  1.0000000 )


      isym =  9     180 deg rotation - cart. axis [1,0,1]        

 cryst.   s( 9) = (    -1          1          0      )
                  (     0          1          0      )
                  (     0          1         -1      )

 cart.    s( 9) = (  0.0000000  0.0000000  1.0000000 )
                  (  0.0000000 -1.0000000  0.0000000 )
                  (  1.0000000  0.0000000  0.0000000 )


      isym = 10     180 deg rotation - cart. axis [-1,0,1]       

 cryst.   s(10) = (     0          0         -1      )
                  (     0         -1          0      )
                  (    -1          0          0      )

 cart.    s(10) = (  0.0000000  0.0000000 -1.0000000 )
                  (  0.0000000 -1.0000000  0.0000000 )
                  ( -1.0000000  0.0000000  0.0000000 )


      isym = 11      90 deg rotation - cart. axis [0,1,0]        

 cryst.   s(11) = (     0          0          1      )
                  (    -1          0          1      )
                  (     0         -1          1      )

 cart.    s(11) = (  0.0000000  0.0000000  1.0000000 )
                  (  0.0000000  1.0000000  0.0000000 )
                  ( -1.0000000  0.0000000  0.0000000 )


      isym = 12      90 deg rotation - cart. axis [0,-1,0]       

 cryst.   s(12) = (     1         -1          0      )
                  (     1          0         -1      )
                  (     1          0          0      )

 cart.    s(12) = (  0.0000000  0.0000000 -1.0000000 )
                  (  0.0000000  1.0000000  0.0000000 )
                  (  1.0000000  0.0000000  0.0000000 )


      isym = 13     180 deg rotation - cart. axis [0,1,1]        

 cryst.   s(13) = (     1          0          0      )
                  (     1         -1          0      )
                  (     1          0         -1      )

 cart.    s(13) = ( -1.0000000  0.0000000  0.0000000 )
                  (  0.0000000  0.0000000  1.0000000 )
                  (  0.0000000  1.0000000  0.0000000 )


      isym = 14     180 deg rotation - cart. axis [0,1,-1]       

 cryst.   s(14) = (    -1          0          0      )
                  (     0          0         -1      )
                  (     0         -1          0      )

 cart.    s(14) = ( -1.0000000  0.0000000  0.0000000 )
                  (  0.0000000  0.0000000 -1.0000000 )
                  (  0.0000000 -1.0000000  0.0000000 )


      isym = 15      90 deg rotation - cart. axis [-1,0,0]       

 cryst.   s(15) = (     0         -1          1      )
                  (     0          0          1      )
                  (    -1          0          1      )

 cart.    s(15) = (  1.0000000  0.0000000  0.0000000 )
                  (  0.0000000  0.0000000  1.0000000 )
                  (  0.0000000 -1.0000000  0.0000000 )


      isym = 16      90 deg rotation - cart. axis [1,0,0]        

 cryst.   s(16) = (     0          1         -1      )
                  (    -1          1          0      )
                  (     0          1          0      )

 cart.    s(16) = (  1.0000000  0.0000000  0.0000000 )
                  (  0.0000000  0.0000000 -1.0000000 )
                  (  0.0000000  1.0000000  0.0000000 )


      isym = 17     120 deg rotation - cart. axis [-1,-1,-1]     

 cryst.   s(17) = (     0          0          1      )
                  (     1          0          0      )
                  (     0          1          0      )

 cart.    s(17) = (  0.0000000  1.0000000  0.0000000 )
                  (  0.0000000  0.0000000  1.0000000 )
                  (  1.0000000  0.0000000  0.0000000 )


      isym = 18     120 deg rotation - cart. axis [-1,1,1]       

 cryst.   s(18) = (     1         -1          0      )
                  (     0         -1          1      )
                  (     0         -1          0      )

 cart.    s(18) = (  0.0000000 -1.0000000  0.0000000 )
                  (  0.0000000  0.0000000  1.0000000 )
                  ( -1.0000000  0.0000000  0.0000000 )


      isym = 19     120 deg rotation - cart. axis [1,1,-1]       

 cryst.   s(19) = (    -1          1          0      )
                  (    -1          0          0      )
                  (    -1          0          1      )

 cart.    s(19) = (  0.0000000  1.0000000  0.0000000 )
                  (  0.0000000  0.0000000 -1.0000000 )
                  ( -1.0000000  0.0000000  0.0000000 )


      isym = 20     120 deg rotation - cart. axis [1,-1,1]       

 cryst.   s(20) = (     0          0         -1      )
                  (     0          1         -1      )
                  (     1          0         -1      )

 cart.    s(20) = (  0.0000000 -1.0000000  0.0000000 )
                  (  0.0000000  0.0000000 -1.0000000 )
                  (  1.0000000  0.0000000  0.0000000 )


      isym = 21     120 deg rotation - cart. axis [1,1,1]        

 cryst.   s(21) = (     0          1          0      )
                  (     0          0          1      )
                  (     1          0          0      )

 cart.    s(21) = (  0.0000000  0.0000000  1.0000000 )
                  (  1.0000000  0.0000000  0.0000000 )
                  (  0.0000000  1.0000000  0.0000000 )


      isym = 22     120 deg rotation - cart. axis [-1,1,-1]      

 cryst.   s(22) = (    -1          0          1      )
                  (    -1          1          0      )
                  (    -1          0          0      )

 cart.    s(22) = (  0.0000000  0.0000000  1.0000000 )
                  ( -1.0000000  0.0000000  0.0000000 )
                  (  0.0000000 -1.0000000  0.0000000 )


      isym = 23     120 deg rotation - cart. axis [1,-1,-1]      

 cryst.   s(23) = (     1          0         -1      )
                  (     0          0         -1      )
                  (     0          1         -1      )

 cart.    s(23) = (  0.0000000  0.0000000 -1.0000000 )
                  ( -1.0000000  0.0000000  0.0000000 )
                  (  0.0000000  1.0000000  0.0000000 )


      isym = 24     120 deg rotation - cart. axis [-1,-1,1]      

 cryst.   s(24) = (     0         -1          0      )
                  (     1         -1          0      )
                  (     0         -1          1      )

 cart.    s(24) = (  0.0000000  0.0000000 -1.0000000 )
                  (  1.0000000  0.0000000  0.0000000 )
                  (  0.0000000 -1.0000000  0.0000000 )


      isym = 25     inversion                                    

 cryst.   s(25) = (    -1          0          0      )
                  (     0         -1          0      )
                  (     0          0         -1      )

 cart.    s(25) = ( -1.0000000  0.0000000  0.0000000 )
                  (  0.0000000 -1.0000000  0.0000000 )
                  (  0.0000000  0.0000000 -1.0000000 )


      isym = 26     inv. 180 deg rotation - cart. axis [0,0,1]   

 cryst.   s(26) = (     0         -1          1      )
                  (    -1          0          1      )
                  (     0          0          1      )

 cart.    s(26) = (  1.0000000  0.0000000  0.0000000 )
                  (  0.0000000  1.0000000  0.0000000 )
                  (  0.0000000  0.0000000 -1.0000000 )


      isym = 27     inv. 180 deg rotation - cart. axis [0,1,0]   

 cryst.   s(27) = (     0          1         -1      )
                  (     0          1          0      )
                  (    -1          1          0      )

 cart.    s(27) = (  1.0000000  0.0000000  0.0000000 )
                  (  0.0000000 -1.0000000  0.0000000 )
                  (  0.0000000  0.0000000  1.0000000 )


      isym = 28     inv. 180 deg rotation - cart. axis [1,0,0]   

 cryst.   s(28) = (     1          0          0      )
                  (     1          0         -1      )
                  (     1         -1          0      )

 cart.    s(28) = ( -1.0000000  0.0000000  0.0000000 )
                  (  0.0000000  1.0000000  0.0000000 )
                  (  0.0000000  0.0000000  1.0000000 )


      isym = 29     inv. 180 deg rotation - cart. axis [1,1,0]   

 cryst.   s(29) = (     1          0         -1      )
                  (     0          1         -1      )
                  (     0          0         -1      )

 cart.    s(29) = (  0.0000000 -1.0000000  0.0000000 )
                  ( -1.0000000  0.0000000  0.0000000 )
                  (  0.0000000  0.0000000  1.0000000 )


      isym = 30     inv. 180 deg rotation - cart. axis [1,-1,0]  

 cryst.   s(30) = (     0          1          0      )
                  (     1          0          0      )
                  (     0          0          1      )

 cart.    s(30) = (  0.0000000  1.0000000  0.0000000 )
                  (  1.0000000  0.0000000  0.0000000 )
                  (  0.0000000  0.0000000  1.0000000 )


      isym = 31     inv.  90 deg rotation - cart. axis [0,0,-1]  

 cryst.   s(31) = (     0         -1          0      )
                  (     0         -1          1      )
                  (     1         -1          0      )

 cart.    s(31) = (  0.0000000 -1.0000000  0.0000000 )
                  (  1.0000000  0.0000000  0.0000000 )
                  (  0.0000000  0.0000000 -1.0000000 )


      isym = 32     inv.  90 deg rotation - cart. axis [0,0,1]   

 cryst.   s(32) = (    -1          0          1      )
                  (    -1          0          0      )
                  (    -1          1          0      )

 cart.    s(32) = (  0.0000000  1.0000000  0.0000000 )
                  ( -1.0000000  0.0000000  0.0000000 )
                  (  0.0000000  0.0000000 -1.0000000 )


      isym = 33     inv. 180 deg rotation - cart. axis [1,0,1]   

 cryst.   s(33) = (     1         -1          0      )
                  (     0         -1          0      )
                  (     0         -1          1      )

 cart.    s(33) = (  0.0000000  0.0000000 -1.0000000 )
                  (  0.0000000  1.0000000  0.0000000 )
                  ( -1.0000000  0.0000000  0.0000000 )


      isym = 34     inv. 180 deg rotation - cart. axis [-1,0,1]  

 cryst.   s(34) = (     0          0          1      )
                  (     0          1          0      )
                  (     1          0          0      )

 cart.    s(34) = (  0.0000000  0.0000000  1.0000000 )
                  (  0.0000000  1.0000000  0.0000000 )
                  (  1.0000000  0.0000000  0.0000000 )


      isym = 35     inv.  90 deg rotation - cart. axis [0,1,0]   

 cryst.   s(35) = (     0          0         -1      )
                  (     1          0         -1      )
                  (     0          1         -1      )

 cart.    s(35) = (  0.0000000  0.0000000 -1.0000000 )
                  (  0.0000000 -1.0000000  0.0000000 )
                  (  1.0000000  0.0000000  0.0000000 )


      isym = 36     inv.  90 deg rotation - cart. axis [0,-1,0]  

 cryst.   s(36) = (    -1          1          0      )
                  (    -1          0          1      )
                  (    -1          0          0      )

 cart.    s(36) = (  0.0000000  0.0000000  1.0000000 )
                  (  0.0000000 -1.0000000  0.0000000 )
                  ( -1.0000000  0.0000000  0.0000000 )


      isym = 37     inv. 180 deg rotation - cart. axis [0,1,1]   

 cryst.   s(37) = (    -1          0          0      )
                  (    -1          1          0      )
                  (    -1          0          1      )

 cart.    s(37) = (  1.0000000  0.0000000  0.0000000 )
                  (  0.0000000  0.0000000 -1.0000000 )
                  (  0.0000000 -1.0000000  0.0000000 )


      isym = 38     inv. 180 deg rotation - cart. axis [0,1,-1]  

 cryst.   s(38) = (     1          0          0      )
                  (     0          0          1      )
                  (     0          1          0      )

 cart.    s(38) = (  1.0000000  0.0000000  0.0000000 )
                  (  0.0000000  0.0000000  1.0000000 )
                  (  0.0000000  1.0000000  0.0000000 )


      isym = 39     inv.  90 deg rotation - cart. axis [-1,0,0]  

 cryst.   s(39) = (     0          1         -1      )
                  (     0          0         -1      )
                  (     1          0         -1      )

 cart.    s(39) = ( -1.0000000  0.0000000  0.0000000 )
                  (  0.0000000  0.0000000 -1.0000000 )
                  (  0.0000000  1.0000000  0.0000000 )


      isym = 40     inv.  90 deg rotation - cart. axis [1,0,0]   

 cryst.   s(40) = (     0         -1          1      )
                  (     1         -1          0      )
                  (     0         -1          0      )

 cart.    s(40) = ( -1.0000000  0.0000000  0.0000000 )
                  (  0.0000000  0.0000000  1.0000000 )
                  (  0.0000000 -1.0000000  0.0000000 )


      isym = 41     inv. 120 deg rotation - cart. axis [-1,-1,-1]

 cryst.   s(41) = (     0          0         -1      )
                  (    -1          0          0      )
                  (     0         -1          0      )

 cart.    s(41) = (  0.0000000 -1.0000000  0.0000000 )
                  (  0.0000000  0.0000000 -1.0000000 )
                  ( -1.0000000  0.0000000  0.0000000 )


      isym = 42     inv. 120 deg rotation - cart. axis [-1,1,1]  

 cryst.   s(42) = (    -1          1          0      )
                  (     0          1         -1      )
                  (     0          1          0      )

 cart.    s(42) = (  0.0000000  1.0000000  0.0000000 )
                  (  0.0000000  0.0000000 -1.0000000 )
                  (  1.0000000  0.0000000  0.0000000 )


      isym = 43     inv. 120 deg rotation - cart. axis [1,1,-1]  

 cryst.   s(43) = (     1         -1          0      )
                  (     1          0          0      )
                  (     1          0         -1      )

 cart.    s(43) = (  0.0000000 -1.0000000  0.0000000 )
                  (  0.0000000  0.0000000  1.0000000 )
                  (  1.0000000  0.0000000  0.0000000 )


      isym = 44     inv. 120 deg rotation - cart. axis [1,-1,1]  

 cryst.   s(44) = (     0          0          1      )
                  (     0         -1          1      )
                  (    -1          0          1      )

 cart.    s(44) = (  0.0000000  1.0000000  0.0000000 )
                  (  0.0000000  0.0000000  1.0000000 )
                  ( -1.0000000  0.0000000  0.0000000 )


      isym = 45     inv. 120 deg rotation - cart. axis [1,1,1]   

 cryst.   s(45) = (     0         -1          0      )
                  (     0          0         -1      )
                  (    -1          0          0      )

 cart.    s(45) = (  0.0000000  0.0000000 -1.0000000 )
                  ( -1.0000000  0.0000000  0.0000000 )
                  (  0.0000000 -1.0000000  0.0000000 )


      isym = 46     inv. 120 deg rotation - cart. axis [-1,1,-1] 

 cryst.   s(46) = (     1          0         -1      )
                  (     1         -1          0      )
                  (     1          0          0      )

 cart.    s(46) = (  0.0000000  0.0000000 -1.0000000 )
                  (  1.0000000  0.0000000  0.0000000 )
                  (  0.0000000  1.0000000  0.0000000 )


      isym = 47     inv. 120 deg rotation - cart. axis [1,-1,-1] 

 cryst.   s(47) = (    -1          0          1      )
                  (     0          0          1      )
                  (     0         -1          1      )

 cart.    s(47) = (  0.0000000  0.0000000  1.0000000 )
                  (  1.0000000  0.0000000  0.0000000 )
                  (  0.0000000 -1.0000000  0.0000000 )


      isym = 48     inv. 120 deg rotation - cart. axis [-1,-1,1] 

 cryst.   s(48) = (     0          1          0      )
                  (    -1          1          0      )
                  (     0          1         -1      )

 cart.    s(48) = (  0.0000000  0.0000000  1.0000000 )
                  ( -1.0000000  0.0000000  0.0000000 )
                  (  0.0000000  1.0000000  0.0000000 )


   Cartesian axes

     site n.     atom                  positions (alat units)
         1           Al  tau(   1) = (   0.0000000   0.0000000   0.0000000  )

   Crystallographic axes

     site n.     atom                  positions (cryst. coord.)
         1           Al  tau(   1) = (  0.0000000  0.0000000  0.0000000  )

     number of k points=    50  gaussian smearing, width (Ry)=  0.0010
                       cart. coord. in units 2pi/alat
        k(    1) = (   0.3535534   0.7071068   0.0000000), wk =   0.0400000
        k(    2) = (   0.3535534   0.6678231   0.0392837), wk =   0.0400000
        k(    3) = (   0.3535534   0.6285394   0.0785674), wk =   0.0400000
        k(    4) = (   0.3535534   0.5892557   0.1178511), wk =   0.0400000
        k(    5) = (   0.3535534   0.5499719   0.1571348), wk =   0.0400000
        k(    6) = (   0.3535534   0.5106882   0.1964186), wk =   0.0400000
        k(    7) = (   0.3535534   0.4714045   0.2357023), wk =   0.0400000
        k(    8) = (   0.3535534   0.4321208   0.2749860), wk =   0.0400000
        k(    9) = (   0.3535534   0.3928371   0.3142697), wk =   0.0400000
        k(   10) = (   0.3535534   0.3535534   0.3535534), wk =   0.0400000
        k(   11) = (   0.3240906   0.3240906   0.3240906), wk =   0.0400000
        k(   12) = (   0.2946278   0.2946278   0.2946278), wk =   0.0400000
        k(   13) = (   0.2651650   0.2651650   0.2651650), wk =   0.0400000
        k(   14) = (   0.2357023   0.2357023   0.2357023), wk =   0.0400000
        k(   15) = (   0.2062395   0.2062395   0.2062395), wk =   0.0400000
        k(   16) = (   0.1767767   0.1767767   0.1767767), wk =   0.0400000
        k(   17) = (   0.1473139   0.1473139   0.1473139), wk =   0.0400000
        k(   18) = (   0.1178511   0.1178511   0.1178511), wk =   0.0400000
        k(   19) = (   0.0883883   0.0883883   0.0883883), wk =   0.0400000
        k(   20) = (   0.0589256   0.0589256   0.0589256), wk =   0.0400000
        k(   21) = (   0.0294628   0.0294628   0.0294628), wk =   0.0400000
        k(   22) = (   0.0000000   0.0000000   0.0000000), wk =   0.0400000
        k(   23) = (   0.0000000   0.0471405   0.0000000), wk =   0.0400000
        k(   24) = (   0.0000000   0.0942809   0.0000000), wk =   0.0400000
        k(   25) = (   0.0000000   0.1414214   0.0000000), wk =   0.0400000
        k(   26) = (   0.0000000   0.1885618   0.0000000), wk =   0.0400000
        k(   27) = (   0.0000000   0.2357023   0.0000000), wk =   0.0400000
        k(   28) = (   0.0000000   0.2828427   0.0000000), wk =   0.0400000
        k(   29) = (   0.0000000   0.3299832   0.0000000), wk =   0.0400000
        k(   30) = (   0.0000000   0.3771236   0.0000000), wk =   0.0400000
        k(   31) = (   0.0000000   0.4242641   0.0000000), wk =   0.0400000
        k(   32) = (   0.0000000   0.4714045   0.0000000), wk =   0.0400000
        k(   33) = (   0.0000000   0.5185450   0.0000000), wk =   0.0400000
        k(   34) = (   0.0000000   0.5656854   0.0000000), wk =   0.0400000
        k(   35) = (   0.0000000   0.6128259   0.0000000), wk =   0.0400000
        k(   36) = (   0.0000000   0.6599663   0.0000000), wk =   0.0400000
        k(   37) = (   0.0000000   0.7071068   0.0000000), wk =   0.0400000
        k(   38) = (   0.0505076   0.7071068   0.0000000), wk =   0.0400000
        k(   39) = (   0.1010153   0.7071068   0.0000000), wk =   0.0400000
        k(   40) = (   0.1515229   0.7071068   0.0000000), wk =   0.0400000
        k(   41) = (   0.2020305   0.7071068  -0.0000000), wk =   0.0400000
        k(   42) = (   0.2525381   0.7071068  -0.0000000), wk =   0.0400000
        k(   43) = (   0.3030458   0.7071068   0.0000000), wk =   0.0400000
        k(   44) = (   0.3535534   0.7071068   0.0000000), wk =   0.0400000
        k(   45) = (   0.3830162   0.6776440   0.0000000), wk =   0.0400000
        k(   46) = (   0.4124790   0.6481812   0.0000000), wk =   0.0400000
        k(   47) = (   0.4419417   0.6187184   0.0000000), wk =   0.0400000
        k(   48) = (   0.4714045   0.5892557   0.0000000), wk =   0.0400000
        k(   49) = (   0.5008673   0.5597929   0.0000000), wk =   0.0400000
        k(   50) = (   0.5303301   0.5303301   0.0000000), wk =   0.0400000

                       cryst. coord.
        k(    1) = (   0.5000000   0.2500000   0.7500000), wk =   0.0400000
        k(    2) = (   0.5000000   0.2777778   0.7222222), wk =   0.0400000
        k(    3) = (   0.5000000   0.3055556   0.6944444), wk =   0.0400000
        k(    4) = (   0.5000000   0.3333333   0.6666667), wk =   0.0400000
        k(    5) = (   0.5000000   0.3611111   0.6388889), wk =   0.0400000
        k(    6) = (   0.5000000   0.3888889   0.6111111), wk =   0.0400000
        k(    7) = (   0.5000000   0.4166667   0.5833333), wk =   0.0400000
        k(    8) = (   0.5000000   0.4444444   0.5555556), wk =   0.0400000
        k(    9) = (   0.5000000   0.4722222   0.5277778), wk =   0.0400000
        k(   10) = (   0.5000000   0.5000000   0.5000000), wk =   0.0400000
        k(   11) = (   0.4583333   0.4583333   0.4583333), wk =   0.0400000
        k(   12) = (   0.4166667   0.4166667   0.4166667), wk =   0.0400000
        k(   13) = (   0.3750000   0.3750000   0.3750000), wk =   0.0400000
        k(   14) = (   0.3333333   0.3333333   0.3333333), wk =   0.0400000
        k(   15) = (   0.2916667   0.2916667   0.2916667), wk =   0.0400000
        k(   16) = (   0.2500000   0.2500000   0.2500000), wk =   0.0400000
        k(   17) = (   0.2083333   0.2083333   0.2083333), wk =   0.0400000
        k(   18) = (   0.1666667   0.1666667   0.1666667), wk =   0.0400000
        k(   19) = (   0.1250000   0.1250000   0.1250000), wk =   0.0400000
        k(   20) = (   0.0833333   0.0833333   0.0833333), wk =   0.0400000
        k(   21) = (   0.0416667   0.0416667   0.0416667), wk =   0.0400000
        k(   22) = (   0.0000000   0.0000000   0.0000000), wk =   0.0400000
        k(   23) = (   0.0333333   0.0000000   0.0333333), wk =   0.0400000
        k(   24) = (   0.0666667   0.0000000   0.0666667), wk =   0.0400000
        k(   25) = (   0.1000000   0.0000000   0.1000000), wk =   0.0400000
        k(   26) = (   0.1333333   0.0000000   0.1333333), wk =   0.0400000
        k(   27) = (   0.1666667   0.0000000   0.1666667), wk =   0.0400000
        k(   28) = (   0.2000000   0.0000000   0.2000000), wk =   0.0400000
        k(   29) = (   0.2333333   0.0000000   0.2333333), wk =   0.0400000
        k(   30) = (   0.2666667   0.0000000   0.2666667), wk =   0.0400000
        k(   31) = (   0.3000000   0.0000000   0.3000000), wk =   0.0400000
        k(   32) = (   0.3333333   0.0000000   0.3333333), wk =   0.0400000
        k(   33) = (   0.3666667   0.0000000   0.3666667), wk =   0.0400000
        k(   34) = (   0.4000000   0.0000000   0.4000000), wk =   0.0400000
        k(   35) = (   0.4333333   0.0000000   0.4333333), wk =   0.0400000
        k(   36) = (   0.4666667   0.0000000   0.4666667), wk =   0.0400000
        k(   37) = (   0.5000000   0.0000000   0.5000000), wk =   0.0400000
        k(   38) = (   0.5000000   0.0357143   0.5357143), wk =   0.0400000
        k(   39) = (   0.5000000   0.0714286   0.5714286), wk =   0.0400000
        k(   40) = (   0.5000000   0.1071429   0.6071429), wk =   0.0400000
        k(   41) = (   0.5000000   0.1428571   0.6428571), wk =   0.0400000
        k(   42) = (   0.5000000   0.1785714   0.6785714), wk =   0.0400000
        k(   43) = (   0.5000000   0.2142857   0.7142857), wk =   0.0400000
        k(   44) = (   0.5000000   0.2500000   0.7500000), wk =   0.0400000
        k(   45) = (   0.4791667   0.2708333   0.7500000), wk =   0.0400000
        k(   46) = (   0.4583333   0.2916667   0.7500000), wk =   0.0400000
        k(   47) = (   0.4375000   0.3125000   0.7500000), wk =   0.0400000
        k(   48) = (   0.4166667   0.3333333   0.7500000), wk =   0.0400000
        k(   49) = (   0.3958333   0.3541667   0.7500000), wk =   0.0400000
        k(   50) = (   0.3750000   0.3750000   0.7500000), wk =   0.0400000

     Dense  grid:     5329 G-vectors     FFT dimensions: (  25,  25,  25)

     Smooth grid:     3839 G-vectors     FFT dimensions: (  24,  24,  24)

     Estimated max dynamical RAM per process >       4.36Mb

     The potential is recalculated from file :
     ./pwscf.save/charge-density.dat

     Starting wfc are    4 randomized atomic wfcs +    2 random wfc

     Band Structure Calculation
     Davidson diagonalization with overlap

     Computing kpt #:     1
     total cpu time spent up to now is        0.5 secs

     Computing kpt #:     2
     total cpu time spent up to now is        0.6 secs

     Computing kpt #:     3
     total cpu time spent up to now is        0.7 secs

     Computing kpt #:     4
     total cpu time spent up to now is        0.7 secs

     Computing kpt #:     5
     total cpu time spent up to now is        0.8 secs

     Computing kpt #:     6
     total cpu time spent up to now is        0.9 secs

     Computing kpt #:     7
     total cpu time spent up to now is        1.0 secs

     Computing kpt #:     8
     total cpu time spent up to now is        1.1 secs

     Computing kpt #:     9
     total cpu time spent up to now is        1.1 secs

     Computing kpt #:    10
     total cpu time spent up to now is        1.2 secs

     Computing kpt #:    11
     total cpu time spent up to now is        1.3 secs

     Computing kpt #:    12
     total cpu time spent up to now is        1.4 secs

     Computing kpt #:    13
     total cpu time spent up to now is        1.5 secs

     Computing kpt #:    14
     total cpu time spent up to now is        1.6 secs

     Computing kpt #:    15
     total cpu time spent up to now is        1.7 secs

     Computing kpt #:    16
     total cpu time spent up to now is        1.8 secs

     Computing kpt #:    17
     total cpu time spent up to now is        1.9 secs

     Computing kpt #:    18
     total cpu time spent up to now is        2.1 secs

     Computing kpt #:    19
     total cpu time spent up to now is        2.2 secs

     Computing kpt #:    20
     total cpu time spent up to now is        2.3 secs

     Computing kpt #:    21
     total cpu time spent up to now is        2.5 secs

     Computing kpt #:    22
     total cpu time spent up to now is        2.6 secs

     Computing kpt #:    23
     total cpu time spent up to now is        2.7 secs

     Computing kpt #:    24
     total cpu time spent up to now is        2.8 secs

     Computing kpt #:    25
     total cpu time spent up to now is        3.0 secs

     Computing kpt #:    26
     total cpu time spent up to now is        3.1 secs

     Computing kpt #:    27
     total cpu time spent up to now is        3.2 secs

     Computing kpt #:    28
     total cpu time spent up to now is        3.2 secs

     Computing kpt #:    29
     total cpu time spent up to now is        3.3 secs

     Computing kpt #:    30
     total cpu time spent up to now is        3.4 secs

     Computing kpt #:    31
     total cpu time spent up to now is        3.5 secs

     Computing kpt #:    32
     total cpu time spent up to now is        3.5 secs

     Computing kpt #:    33
     total cpu time spent up to now is        3.6 secs

     Computing kpt #:    34
     total cpu time spent up to now is        3.7 secs

     Computing kpt #:    35
     total cpu time spent up to now is        3.7 secs

     Computing kpt #:    36
     total cpu time spent up to now is        3.8 secs

     Computing kpt #:    37
     total cpu time spent up to now is        3.9 secs

     Computing kpt #:    38
     total cpu time spent up to now is        3.9 secs

     Computing kpt #:    39
     total cpu time spent up to now is        4.0 secs

     Computing kpt #:    40
     total cpu time spent up to now is        4.1 secs

     Computing kpt #:    41
     total cpu time spent up to now is        4.1 secs

     Computing kpt #:    42
     total cpu time spent up to now is        4.2 secs

     Computing kpt #:    43
     total cpu time spent up to now is        4.3 secs

     Computing kpt #:    44
     total cpu time spent up to now is        4.4 secs

     Computing kpt #:    45
     total cpu time spent up to now is        4.5 secs

     Computing kpt #:    46
     total cpu time spent up to now is        4.6 secs

     Computing kpt #:    47
     total cpu time spent up to now is        4.6 secs

     Computing kpt #:    48
     total cpu time spent up to now is        4.7 secs

     Computing kpt #:    49
     total cpu time spent up to now is        4.8 secs

     Computing kpt #:    50
     total cpu time spent up to now is        4.9 secs

     ethr =  3.33E-09,  avg # of iterations = 13.6

     total cpu time spent up to now is        4.9 secs

     End of band structure calculation

          k = 0.3536 0.7071 0.0000 (   488 PWs)   bands (ev):

     7.0075   7.0075   8.0436   8.8912  23.5473  23.5473

          k = 0.3536 0.6678 0.0393 (   476 PWs)   bands (ev):

     6.5018   6.6571   8.6523   9.3365  22.9508  23.3045

          k = 0.3536 0.6285 0.0786 (   480 PWs)   bands (ev):

     5.7777   6.0165   9.6850  10.2606  22.2870  22.7884

          k = 0.3536 0.5893 0.1179 (   478 PWs)   bands (ev):

     5.1175   5.3794  10.8581  11.3679  21.7037  22.2248

          k = 0.3536 0.5500 0.1571 (   476 PWs)   bands (ev):

     4.5505   4.8139  12.1395  12.5857  21.2054  21.6965

          k = 0.3536 0.5107 0.1964 (   478 PWs)   bands (ev):

     4.0836   4.3401  13.5168  13.8862  20.7901  21.2301

          k = 0.3536 0.4714 0.2357 (   468 PWs)   bands (ev):

     3.7192   3.9666  14.9754  15.2472  20.4508  20.8256

          k = 0.3536 0.4321 0.2750 (   474 PWs)   bands (ev):

     3.4584   3.6976  16.4850  16.6377  20.1642  20.4497

          k = 0.3536 0.3928 0.3143 (   472 PWs)   bands (ev):

     3.3017   3.5354  17.9619  17.9937  19.8419  19.9845

          k = 0.3536 0.3536 0.3536 (   476 PWs)   bands (ev):

     3.2495   3.4812  19.0769  19.0769  19.2849  19.2849

          k = 0.3241 0.3241 0.3241 (   470 PWs)   bands (ev):

     2.3161   4.4974  18.8825  18.8825  19.5576  19.5576

          k = 0.2946 0.2946 0.2946 (   477 PWs)   bands (ev):

     1.3607   5.7008  18.6871  18.6871  19.9874  19.9874

          k = 0.2652 0.2652 0.2652 (   477 PWs)   bands (ev):

     0.4895   6.9845  18.5648  18.5648  20.4989  20.4989

          k = 0.2357 0.2357 0.2357 (   492 PWs)   bands (ev):

    -0.2944   8.3442  18.5196  18.5196  21.0854  21.0854

          k = 0.2062 0.2062 0.2062 (   483 PWs)   bands (ev):

    -0.9893   9.7765  18.5516  18.5516  21.7405  21.7405

          k = 0.1768 0.1768 0.1768 (   483 PWs)   bands (ev):

    -1.5940  11.2772  18.6607  18.6607  22.0207  22.4500

          k = 0.1473 0.1473 0.1473 (   483 PWs)   bands (ev):

    -2.1074  12.8409  18.8457  18.8457  22.1169  23.1655

          k = 0.1179 0.1179 0.1179 (   489 PWs)   bands (ev):

    -2.5286  14.4593  19.1045  19.1045  22.2444  23.6187

          k = 0.0884 0.0884 0.0884 (   495 PWs)   bands (ev):

    -2.8569  16.1191  19.4323  19.4323  22.3667  23.2413

          k = 0.0589 0.0589 0.0589 (   495 PWs)   bands (ev):

    -3.0918  17.7926  19.8164  19.8164  22.4091  22.5693

          k = 0.0295 0.0295 0.0295 (   507 PWs)   bands (ev):

    -3.2329  19.4013  20.2124  20.2124  21.9689  21.9689

          k = 0.0000 0.0000 0.0000 (   531 PWs)   bands (ev):

    -3.2800  20.4309  20.4309  20.4309  21.6795  21.6795

          k = 0.0000 0.0471 0.0000 (   503 PWs)   bands (ev):

    -3.2398  19.9058  19.9058  20.1220  21.5805  22.2608

          k = 0.0000 0.0943 0.0000 (   503 PWs)   bands (ev):

    -3.1194  19.0793  19.0793  19.4237  21.3041  23.2539

          k = 0.0000 0.1414 0.0000 (   495 PWs)   bands (ev):

    -2.9189  18.2630  18.2630  18.6083  20.8977  23.6651

          k = 0.0000 0.1886 0.0000 (   495 PWs)   bands (ev):

    -2.6386  17.4964  17.4964  17.7903  20.4111  21.9603

          k = 0.0000 0.2357 0.0000 (   488 PWs)   bands (ev):

    -2.2789  16.7896  16.7896  17.0128  19.8578  20.2778

          k = 0.0000 0.2828 0.0000 (   480 PWs)   bands (ev):

    -1.8404  16.1466  16.1466  16.2939  18.5115  19.4073

          k = 0.0000 0.3300 0.0000 (   480 PWs)   bands (ev):

    -1.3237  15.5693  15.5693  15.6423  16.8656  18.8933

          k = 0.0000 0.3771 0.0000 (   480 PWs)   bands (ev):

    -0.7297  15.0587  15.0587  15.0626  15.2593  18.4215

          k = 0.0000 0.4243 0.0000 (   480 PWs)   bands (ev):

    -0.0597  13.7051  14.5574  14.6156  14.6156  17.9965

          k = 0.0000 0.4714 0.0000 (   480 PWs)   bands (ev):

     0.6849  12.2088  14.1283  14.2403  14.2403  17.6257

          k = 0.0000 0.5185 0.0000 (   472 PWs)   bands (ev):

     1.5016  10.7748  13.7763  13.9329  13.9329  17.3151

          k = 0.0000 0.5657 0.0000 (   468 PWs)   bands (ev):

     2.3864   9.4088  13.5020  13.6938  13.6938  17.0691

          k = 0.0000 0.6128 0.0000 (   468 PWs)   bands (ev):

     3.3289   8.1219  13.3058  13.5229  13.5229  16.8912

          k = 0.0000 0.6600 0.0000 (   468 PWs)   bands (ev):

     4.2887   6.9553  13.1880  13.4204  13.4204  16.7836

          k = 0.0000 0.7071 0.0000 (   468 PWs)   bands (ev):

     4.9141   6.2609  13.1488  13.3862  13.3862  16.7476

          k = 0.0505 0.7071 0.0000 (   468 PWs)   bands (ev):

     4.9569   6.3052  12.1148  13.0526  14.5032  17.1477

          k = 0.1010 0.7071 0.0000 (   472 PWs)   bands (ev):

     5.0851   6.4376  11.0546  12.3235  15.8125  18.0759

          k = 0.1515 0.7071 0.0000 (   474 PWs)   bands (ev):

     5.2989   6.6569  10.0766  11.4926  17.2049  19.2363

          k = 0.2020 0.7071-0.0000 (   478 PWs)   bands (ev):

     5.5981   6.9599   9.1824  10.6724  18.6775  20.5113

          k = 0.2525 0.7071-0.0000 (   478 PWs)   bands (ev):

     5.9826   7.3388   8.3727   9.9096  20.2279  21.8424

          k = 0.3030 0.7071 0.0000 (   476 PWs)   bands (ev):

     6.4525   7.6476   7.7648   9.2489  21.8528  23.1421

          k = 0.3536 0.7071 0.0000 (   488 PWs)   bands (ev):

     7.0075   7.0075   8.0436   8.8912  23.5473  23.5473

          k = 0.3830 0.6776 0.0000 (   478 PWs)   bands (ev):

     6.6879   7.0729   8.0261   9.2743  22.2966  23.8562

          k = 0.4125 0.6482 0.0000 (   478 PWs)   bands (ev):

     6.4264   6.9081   7.8617  10.1976  20.8846  23.6918

          k = 0.4419 0.6187 0.0000 (   481 PWs)   bands (ev):

     6.2229   6.7382   7.6869  11.2955  19.4561  23.5337

          k = 0.4714 0.5893 0.0000 (   483 PWs)   bands (ev):

     6.0775   6.6073   7.5515  12.4616  18.0612  23.4130

          k = 0.5009 0.5598 0.0000 (   481 PWs)   bands (ev):

     5.9903   6.5264   7.4677  13.6220  16.7647  23.3386

          k = 0.5303 0.5303 0.0000 (   478 PWs)   bands (ev):

     5.9612   6.4992   7.4395  14.3536  15.9878  23.3135

     Writing output data file pwscf.save

     init_run     :      0.42s CPU      0.31s WALL (       1 calls)
     electrons    :      8.47s CPU      4.42s WALL (       1 calls)

     Called by init_run:
     wfcinit      :      0.00s CPU      0.00s WALL (       1 calls)
     wfcinit:atom :      0.00s CPU      0.01s WALL (      50 calls)
     wfcinit:wfcr :      0.59s CPU      0.33s WALL (      50 calls)
     potinit      :      0.02s CPU      0.02s WALL (       1 calls)

     Called by electrons:
     c_bands      :      8.47s CPU      4.42s WALL (       1 calls)
     v_of_rho     :      0.02s CPU      0.01s WALL (       1 calls)
     v_h          :      0.00s CPU      0.00s WALL (       1 calls)
     v_xc         :      0.02s CPU      0.01s WALL (       1 calls)
     newd         :      0.02s CPU      0.01s WALL (       1 calls)

     Called by c_bands:
     init_us_2    :      0.00s CPU      0.02s WALL (      50 calls)
     cegterg      :      7.75s CPU      4.00s WALL (      54 calls)

     Called by sum_band:

     Called by *egterg:
     h_psi        :      7.03s CPU      3.51s WALL (     783 calls)
     s_psi        :      0.09s CPU      0.04s WALL (     783 calls)
     g_psi        :      0.00s CPU      0.02s WALL (     679 calls)
     cdiaghg      :      0.50s CPU      0.45s WALL (     729 calls)
     cegterg:over :      0.17s CPU      0.09s WALL (     679 calls)
     cegterg:upda :      0.16s CPU      0.08s WALL (     679 calls)
     cegterg:last :      0.09s CPU      0.05s WALL (     178 calls)

     Called by h_psi:
     h_psi:pot    :      7.02s CPU      3.49s WALL (     783 calls)
     h_psi:calbec :      0.22s CPU      0.05s WALL (     783 calls)
     vloc_psi     :      6.75s CPU      3.38s WALL (     783 calls)
     add_vuspsi   :      0.02s CPU      0.04s WALL (     783 calls)

     General routines
     calbec       :      0.16s CPU      0.04s WALL (     783 calls)
     fft          :      0.00s CPU      0.01s WALL (      13 calls)
     ffts         :      0.00s CPU      0.01s WALL (       1 calls)
     fftw         :      6.31s CPU      3.11s WALL (    6624 calls)
     interpolate  :      0.00s CPU      0.01s WALL (       1 calls)
     davcio       :      0.00s CPU      0.00s WALL (      50 calls)

     Parallel routines
     fft_scatter  :      0.19s CPU      0.15s WALL (    6638 calls)

     PWSCF        :     9.38s CPU         5.17s WALL


   This run was terminated on:  11:38:27  25Feb2021            

=------------------------------------------------------------------------------=
   JOB DONE.
=------------------------------------------------------------------------------=
