
     Program PWSCF v.6.0 (svn rev. 13079) starts on 25Feb2021 at 17:53:23 

     This program is part of the open-source Quantum ESPRESSO suite
     for quantum simulation of materials; please cite
         "P. Giannozzi et al., J. Phys.:Condens. Matter 21 395502 (2009);
          URL http://www.quantum-espresso.org", 
     in publications or presentations arising from this work. More details at
     http://www.quantum-espresso.org/quote

     Parallel version (MPI), running on     1 processors
     Reading input from espresso.pwi
Warning: card &IONS ignored
Warning: card / ignored
Warning: card &CELL ignored
Warning: card / ignored

     Current dimensions of program PWSCF are:
     Max number of different atomic species (ntypx) = 10
     Max number of k-points (npk) =  40000
     Max angular momentum in pseudopotentials (lmaxx) =  3
     Message from routine input:
     WARNING: "startingwfc" set to atomic+random may spoil restart

     Atomic positions and unit cell read from directory:
     ./pwscf.save/


     IMPORTANT: XC functional enforced from input :
     Exchange-correlation      = PBE ( 1  4  3  4 0 0)
     Any further DFT definition will be discarded
     Please, verify this is what you really want


     Subspace diagonalization in iterative solution of the eigenvalue problem:
     a serial algorithm will be used


     G-vector sticks info
     --------------------
     sticks:   dense  smooth     PW     G-vecs:    dense   smooth      PW
     Sum         437     345    117                 5775     4093     791



     bravais-lattice index     =            0
     lattice parameter (alat)  =       5.4006  a.u.
     unit-cell volume          =     121.2574 (a.u.)^3
     number of atoms/cell      =            1
     number of atomic types    =            1
     number of electrons       =        13.00
     number of Kohn-Sham states=           11
     kinetic-energy cutoff     =      40.0000  Ry
     charge density cutoff     =     200.0000  Ry
     Exchange-correlation      = PBE ( 1  4  3  4 0 0)

     celldm(1)=   5.400618  celldm(2)=   0.000000  celldm(3)=   0.000000
     celldm(4)=   0.000000  celldm(5)=   0.000000  celldm(6)=   0.000000

     crystal axes: (cart. coord. in units of alat)
               a(1) = (  -0.577350   0.577350   0.577350 )  
               a(2) = (   0.577350  -0.577350   0.577350 )  
               a(3) = (   0.577350   0.577350  -0.577350 )  

     reciprocal axes: (cart. coord. in units 2 pi/alat)
               b(1) = (  0.000000  0.866025  0.866025 )  
               b(2) = (  0.866025  0.000000  0.866025 )  
               b(3) = (  0.866025  0.866025  0.000000 )  


     PseudoPot. # 1 for Nb read from file:
     /home/inukai/tango/tests/1element/qe_fit_v2_Nb/../pseudo/nb_pbe_v1.uspp.F.UPF
     MD5 check sum: 573aab8a2fa660278ed4a62cd769473f
     Pseudo is Ultrasoft + core correction, Zval = 13.0
     Generated by new atomic code, or converted to UPF format
     Using radial grid of  887 points,  6 beta functions with: 
                l(1) =   0
                l(2) =   0
                l(3) =   1
                l(4) =   1
                l(5) =   2
                l(6) =   2
     Q(r) pseudized with  6 coefficients,  rinner =    1.000   1.000   1.000
                                                       1.000   1.000

     atomic species   valence    mass     pseudopotential
        Nb            13.00    92.90637     Nb( 1.00)

     48 Sym. Ops., with inversion, found


                                    s                        frac. trans.

      isym =  1     identity                                     

 cryst.   s( 1) = (     1          0          0      )
                  (     0          1          0      )
                  (     0          0          1      )

 cart.    s( 1) = (  1.0000000  0.0000000  0.0000000 )
                  (  0.0000000  1.0000000  0.0000000 )
                  (  0.0000000  0.0000000  1.0000000 )


      isym =  2     180 deg rotation - cart. axis [0,0,1]        

 cryst.   s( 2) = (     0          1          0      )
                  (     1          0          0      )
                  (    -1         -1         -1      )

 cart.    s( 2) = ( -1.0000000  0.0000000  0.0000000 )
                  (  0.0000000 -1.0000000  0.0000000 )
                  (  0.0000000  0.0000000  1.0000000 )


      isym =  3     180 deg rotation - cart. axis [0,1,0]        

 cryst.   s( 3) = (     0          0          1      )
                  (    -1         -1         -1      )
                  (     1          0          0      )

 cart.    s( 3) = ( -1.0000000  0.0000000  0.0000000 )
                  (  0.0000000  1.0000000  0.0000000 )
                  (  0.0000000  0.0000000 -1.0000000 )


      isym =  4     180 deg rotation - cart. axis [1,0,0]        

 cryst.   s( 4) = (    -1         -1         -1      )
                  (     0          0          1      )
                  (     0          1          0      )

 cart.    s( 4) = (  1.0000000  0.0000000  0.0000000 )
                  (  0.0000000 -1.0000000  0.0000000 )
                  (  0.0000000  0.0000000 -1.0000000 )


      isym =  5     180 deg rotation - cart. axis [1,1,0]        

 cryst.   s( 5) = (    -1          0          0      )
                  (     0         -1          0      )
                  (     1          1          1      )

 cart.    s( 5) = (  0.0000000  1.0000000  0.0000000 )
                  (  1.0000000  0.0000000  0.0000000 )
                  (  0.0000000  0.0000000 -1.0000000 )


      isym =  6     180 deg rotation - cart. axis [1,-1,0]       

 cryst.   s( 6) = (     0         -1          0      )
                  (    -1          0          0      )
                  (     0          0         -1      )

 cart.    s( 6) = (  0.0000000 -1.0000000  0.0000000 )
                  ( -1.0000000  0.0000000  0.0000000 )
                  (  0.0000000  0.0000000 -1.0000000 )


      isym =  7      90 deg rotation - cart. axis [0,0,-1]       

 cryst.   s( 7) = (     1          1          1      )
                  (     0          0         -1      )
                  (    -1          0          0      )

 cart.    s( 7) = (  0.0000000  1.0000000  0.0000000 )
                  ( -1.0000000  0.0000000  0.0000000 )
                  (  0.0000000  0.0000000  1.0000000 )


      isym =  8      90 deg rotation - cart. axis [0,0,1]        

 cryst.   s( 8) = (     0          0         -1      )
                  (     1          1          1      )
                  (     0         -1          0      )

 cart.    s( 8) = (  0.0000000 -1.0000000  0.0000000 )
                  (  1.0000000  0.0000000  0.0000000 )
                  (  0.0000000  0.0000000  1.0000000 )


      isym =  9     180 deg rotation - cart. axis [1,0,1]        

 cryst.   s( 9) = (    -1          0          0      )
                  (     1          1          1      )
                  (     0          0         -1      )

 cart.    s( 9) = (  0.0000000  0.0000000  1.0000000 )
                  (  0.0000000 -1.0000000  0.0000000 )
                  (  1.0000000  0.0000000  0.0000000 )


      isym = 10     180 deg rotation - cart. axis [-1,0,1]       

 cryst.   s(10) = (     0          0         -1      )
                  (     0         -1          0      )
                  (    -1          0          0      )

 cart.    s(10) = (  0.0000000  0.0000000 -1.0000000 )
                  (  0.0000000 -1.0000000  0.0000000 )
                  ( -1.0000000  0.0000000  0.0000000 )


      isym = 11      90 deg rotation - cart. axis [0,1,0]        

 cryst.   s(11) = (     1          1          1      )
                  (    -1          0          0      )
                  (     0         -1          0      )

 cart.    s(11) = (  0.0000000  0.0000000  1.0000000 )
                  (  0.0000000  1.0000000  0.0000000 )
                  ( -1.0000000  0.0000000  0.0000000 )


      isym = 12      90 deg rotation - cart. axis [0,-1,0]       

 cryst.   s(12) = (     0         -1          0      )
                  (     0          0         -1      )
                  (     1          1          1      )

 cart.    s(12) = (  0.0000000  0.0000000 -1.0000000 )
                  (  0.0000000  1.0000000  0.0000000 )
                  (  1.0000000  0.0000000  0.0000000 )


      isym = 13     180 deg rotation - cart. axis [0,1,1]        

 cryst.   s(13) = (     1          1          1      )
                  (     0         -1          0      )
                  (     0          0         -1      )

 cart.    s(13) = ( -1.0000000  0.0000000  0.0000000 )
                  (  0.0000000  0.0000000  1.0000000 )
                  (  0.0000000  1.0000000  0.0000000 )


      isym = 14     180 deg rotation - cart. axis [0,1,-1]       

 cryst.   s(14) = (    -1          0          0      )
                  (     0          0         -1      )
                  (     0         -1          0      )

 cart.    s(14) = ( -1.0000000  0.0000000  0.0000000 )
                  (  0.0000000  0.0000000 -1.0000000 )
                  (  0.0000000 -1.0000000  0.0000000 )


      isym = 15      90 deg rotation - cart. axis [-1,0,0]       

 cryst.   s(15) = (     0         -1          0      )
                  (     1          1          1      )
                  (    -1          0          0      )

 cart.    s(15) = (  1.0000000  0.0000000  0.0000000 )
                  (  0.0000000  0.0000000  1.0000000 )
                  (  0.0000000 -1.0000000  0.0000000 )


      isym = 16      90 deg rotation - cart. axis [1,0,0]        

 cryst.   s(16) = (     0          0         -1      )
                  (    -1          0          0      )
                  (     1          1          1      )

 cart.    s(16) = (  1.0000000  0.0000000  0.0000000 )
                  (  0.0000000  0.0000000 -1.0000000 )
                  (  0.0000000  1.0000000  0.0000000 )


      isym = 17     120 deg rotation - cart. axis [-1,-1,-1]     

 cryst.   s(17) = (     0          0          1      )
                  (     1          0          0      )
                  (     0          1          0      )

 cart.    s(17) = (  0.0000000  1.0000000  0.0000000 )
                  (  0.0000000  0.0000000  1.0000000 )
                  (  1.0000000  0.0000000  0.0000000 )


      isym = 18     120 deg rotation - cart. axis [-1,1,1]       

 cryst.   s(18) = (     1          0          0      )
                  (     0          0          1      )
                  (    -1         -1         -1      )

 cart.    s(18) = (  0.0000000 -1.0000000  0.0000000 )
                  (  0.0000000  0.0000000  1.0000000 )
                  ( -1.0000000  0.0000000  0.0000000 )


      isym = 19     120 deg rotation - cart. axis [1,1,-1]       

 cryst.   s(19) = (     0          1          0      )
                  (    -1         -1         -1      )
                  (     0          0          1      )

 cart.    s(19) = (  0.0000000  1.0000000  0.0000000 )
                  (  0.0000000  0.0000000 -1.0000000 )
                  ( -1.0000000  0.0000000  0.0000000 )


      isym = 20     120 deg rotation - cart. axis [1,-1,1]       

 cryst.   s(20) = (    -1         -1         -1      )
                  (     0          1          0      )
                  (     1          0          0      )

 cart.    s(20) = (  0.0000000 -1.0000000  0.0000000 )
                  (  0.0000000  0.0000000 -1.0000000 )
                  (  1.0000000  0.0000000  0.0000000 )


      isym = 21     120 deg rotation - cart. axis [1,1,1]        

 cryst.   s(21) = (     0          1          0      )
                  (     0          0          1      )
                  (     1          0          0      )

 cart.    s(21) = (  0.0000000  0.0000000  1.0000000 )
                  (  1.0000000  0.0000000  0.0000000 )
                  (  0.0000000  1.0000000  0.0000000 )


      isym = 22     120 deg rotation - cart. axis [-1,1,-1]      

 cryst.   s(22) = (     0          0          1      )
                  (     0          1          0      )
                  (    -1         -1         -1      )

 cart.    s(22) = (  0.0000000  0.0000000  1.0000000 )
                  ( -1.0000000  0.0000000  0.0000000 )
                  (  0.0000000 -1.0000000  0.0000000 )


      isym = 23     120 deg rotation - cart. axis [1,-1,-1]      

 cryst.   s(23) = (     1          0          0      )
                  (    -1         -1         -1      )
                  (     0          1          0      )

 cart.    s(23) = (  0.0000000  0.0000000 -1.0000000 )
                  ( -1.0000000  0.0000000  0.0000000 )
                  (  0.0000000  1.0000000  0.0000000 )


      isym = 24     120 deg rotation - cart. axis [-1,-1,1]      

 cryst.   s(24) = (    -1         -1         -1      )
                  (     1          0          0      )
                  (     0          0          1      )

 cart.    s(24) = (  0.0000000  0.0000000 -1.0000000 )
                  (  1.0000000  0.0000000  0.0000000 )
                  (  0.0000000 -1.0000000  0.0000000 )


      isym = 25     inversion                                    

 cryst.   s(25) = (    -1          0          0      )
                  (     0         -1          0      )
                  (     0          0         -1      )

 cart.    s(25) = ( -1.0000000  0.0000000  0.0000000 )
                  (  0.0000000 -1.0000000  0.0000000 )
                  (  0.0000000  0.0000000 -1.0000000 )


      isym = 26     inv. 180 deg rotation - cart. axis [0,0,1]   

 cryst.   s(26) = (     0         -1          0      )
                  (    -1          0          0      )
                  (     1          1          1      )

 cart.    s(26) = (  1.0000000  0.0000000  0.0000000 )
                  (  0.0000000  1.0000000  0.0000000 )
                  (  0.0000000  0.0000000 -1.0000000 )


      isym = 27     inv. 180 deg rotation - cart. axis [0,1,0]   

 cryst.   s(27) = (     0          0         -1      )
                  (     1          1          1      )
                  (    -1          0          0      )

 cart.    s(27) = (  1.0000000  0.0000000  0.0000000 )
                  (  0.0000000 -1.0000000  0.0000000 )
                  (  0.0000000  0.0000000  1.0000000 )


      isym = 28     inv. 180 deg rotation - cart. axis [1,0,0]   

 cryst.   s(28) = (     1          1          1      )
                  (     0          0         -1      )
                  (     0         -1          0      )

 cart.    s(28) = ( -1.0000000  0.0000000  0.0000000 )
                  (  0.0000000  1.0000000  0.0000000 )
                  (  0.0000000  0.0000000  1.0000000 )


      isym = 29     inv. 180 deg rotation - cart. axis [1,1,0]   

 cryst.   s(29) = (     1          0          0      )
                  (     0          1          0      )
                  (    -1         -1         -1      )

 cart.    s(29) = (  0.0000000 -1.0000000  0.0000000 )
                  ( -1.0000000  0.0000000  0.0000000 )
                  (  0.0000000  0.0000000  1.0000000 )


      isym = 30     inv. 180 deg rotation - cart. axis [1,-1,0]  

 cryst.   s(30) = (     0          1          0      )
                  (     1          0          0      )
                  (     0          0          1      )

 cart.    s(30) = (  0.0000000  1.0000000  0.0000000 )
                  (  1.0000000  0.0000000  0.0000000 )
                  (  0.0000000  0.0000000  1.0000000 )


      isym = 31     inv.  90 deg rotation - cart. axis [0,0,-1]  

 cryst.   s(31) = (    -1         -1         -1      )
                  (     0          0          1      )
                  (     1          0          0      )

 cart.    s(31) = (  0.0000000 -1.0000000  0.0000000 )
                  (  1.0000000  0.0000000  0.0000000 )
                  (  0.0000000  0.0000000 -1.0000000 )


      isym = 32     inv.  90 deg rotation - cart. axis [0,0,1]   

 cryst.   s(32) = (     0          0          1      )
                  (    -1         -1         -1      )
                  (     0          1          0      )

 cart.    s(32) = (  0.0000000  1.0000000  0.0000000 )
                  ( -1.0000000  0.0000000  0.0000000 )
                  (  0.0000000  0.0000000 -1.0000000 )


      isym = 33     inv. 180 deg rotation - cart. axis [1,0,1]   

 cryst.   s(33) = (     1          0          0      )
                  (    -1         -1         -1      )
                  (     0          0          1      )

 cart.    s(33) = (  0.0000000  0.0000000 -1.0000000 )
                  (  0.0000000  1.0000000  0.0000000 )
                  ( -1.0000000  0.0000000  0.0000000 )


      isym = 34     inv. 180 deg rotation - cart. axis [-1,0,1]  

 cryst.   s(34) = (     0          0          1      )
                  (     0          1          0      )
                  (     1          0          0      )

 cart.    s(34) = (  0.0000000  0.0000000  1.0000000 )
                  (  0.0000000  1.0000000  0.0000000 )
                  (  1.0000000  0.0000000  0.0000000 )


      isym = 35     inv.  90 deg rotation - cart. axis [0,1,0]   

 cryst.   s(35) = (    -1         -1         -1      )
                  (     1          0          0      )
                  (     0          1          0      )

 cart.    s(35) = (  0.0000000  0.0000000 -1.0000000 )
                  (  0.0000000 -1.0000000  0.0000000 )
                  (  1.0000000  0.0000000  0.0000000 )


      isym = 36     inv.  90 deg rotation - cart. axis [0,-1,0]  

 cryst.   s(36) = (     0          1          0      )
                  (     0          0          1      )
                  (    -1         -1         -1      )

 cart.    s(36) = (  0.0000000  0.0000000  1.0000000 )
                  (  0.0000000 -1.0000000  0.0000000 )
                  ( -1.0000000  0.0000000  0.0000000 )


      isym = 37     inv. 180 deg rotation - cart. axis [0,1,1]   

 cryst.   s(37) = (    -1         -1         -1      )
                  (     0          1          0      )
                  (     0          0          1      )

 cart.    s(37) = (  1.0000000  0.0000000  0.0000000 )
                  (  0.0000000  0.0000000 -1.0000000 )
                  (  0.0000000 -1.0000000  0.0000000 )


      isym = 38     inv. 180 deg rotation - cart. axis [0,1,-1]  

 cryst.   s(38) = (     1          0          0      )
                  (     0          0          1      )
                  (     0          1          0      )

 cart.    s(38) = (  1.0000000  0.0000000  0.0000000 )
                  (  0.0000000  0.0000000  1.0000000 )
                  (  0.0000000  1.0000000  0.0000000 )


      isym = 39     inv.  90 deg rotation - cart. axis [-1,0,0]  

 cryst.   s(39) = (     0          1          0      )
                  (    -1         -1         -1      )
                  (     1          0          0      )

 cart.    s(39) = ( -1.0000000  0.0000000  0.0000000 )
                  (  0.0000000  0.0000000 -1.0000000 )
                  (  0.0000000  1.0000000  0.0000000 )


      isym = 40     inv.  90 deg rotation - cart. axis [1,0,0]   

 cryst.   s(40) = (     0          0          1      )
                  (     1          0          0      )
                  (    -1         -1         -1      )

 cart.    s(40) = ( -1.0000000  0.0000000  0.0000000 )
                  (  0.0000000  0.0000000  1.0000000 )
                  (  0.0000000 -1.0000000  0.0000000 )


      isym = 41     inv. 120 deg rotation - cart. axis [-1,-1,-1]

 cryst.   s(41) = (     0          0         -1      )
                  (    -1          0          0      )
                  (     0         -1          0      )

 cart.    s(41) = (  0.0000000 -1.0000000  0.0000000 )
                  (  0.0000000  0.0000000 -1.0000000 )
                  ( -1.0000000  0.0000000  0.0000000 )


      isym = 42     inv. 120 deg rotation - cart. axis [-1,1,1]  

 cryst.   s(42) = (    -1          0          0      )
                  (     0          0         -1      )
                  (     1          1          1      )

 cart.    s(42) = (  0.0000000  1.0000000  0.0000000 )
                  (  0.0000000  0.0000000 -1.0000000 )
                  (  1.0000000  0.0000000  0.0000000 )


      isym = 43     inv. 120 deg rotation - cart. axis [1,1,-1]  

 cryst.   s(43) = (     0         -1          0      )
                  (     1          1          1      )
                  (     0          0         -1      )

 cart.    s(43) = (  0.0000000 -1.0000000  0.0000000 )
                  (  0.0000000  0.0000000  1.0000000 )
                  (  1.0000000  0.0000000  0.0000000 )


      isym = 44     inv. 120 deg rotation - cart. axis [1,-1,1]  

 cryst.   s(44) = (     1          1          1      )
                  (     0         -1          0      )
                  (    -1          0          0      )

 cart.    s(44) = (  0.0000000  1.0000000  0.0000000 )
                  (  0.0000000  0.0000000  1.0000000 )
                  ( -1.0000000  0.0000000  0.0000000 )


      isym = 45     inv. 120 deg rotation - cart. axis [1,1,1]   

 cryst.   s(45) = (     0         -1          0      )
                  (     0          0         -1      )
                  (    -1          0          0      )

 cart.    s(45) = (  0.0000000  0.0000000 -1.0000000 )
                  ( -1.0000000  0.0000000  0.0000000 )
                  (  0.0000000 -1.0000000  0.0000000 )


      isym = 46     inv. 120 deg rotation - cart. axis [-1,1,-1] 

 cryst.   s(46) = (     0          0         -1      )
                  (     0         -1          0      )
                  (     1          1          1      )

 cart.    s(46) = (  0.0000000  0.0000000 -1.0000000 )
                  (  1.0000000  0.0000000  0.0000000 )
                  (  0.0000000  1.0000000  0.0000000 )


      isym = 47     inv. 120 deg rotation - cart. axis [1,-1,-1] 

 cryst.   s(47) = (    -1          0          0      )
                  (     1          1          1      )
                  (     0         -1          0      )

 cart.    s(47) = (  0.0000000  0.0000000  1.0000000 )
                  (  1.0000000  0.0000000  0.0000000 )
                  (  0.0000000 -1.0000000  0.0000000 )


      isym = 48     inv. 120 deg rotation - cart. axis [-1,-1,1] 

 cryst.   s(48) = (     1          1          1      )
                  (    -1          0          0      )
                  (     0          0         -1      )

 cart.    s(48) = (  0.0000000  0.0000000  1.0000000 )
                  ( -1.0000000  0.0000000  0.0000000 )
                  (  0.0000000  1.0000000  0.0000000 )


   Cartesian axes

     site n.     atom                  positions (alat units)
         1           Nb  tau(   1) = (   0.0000000   0.0000000   0.0000000  )

   Crystallographic axes

     site n.     atom                  positions (cryst. coord.)
         1           Nb  tau(   1) = (  0.0000000  0.0000000  0.0000000  )

     number of k points=    50  gaussian smearing, width (Ry)=  0.0010
                       cart. coord. in units 2pi/alat
        k(    1) = (   0.0000000   0.0000000   0.0000000), wk =   0.0400000
        k(    2) = (   0.0000000   0.0618590   0.0000000), wk =   0.0400000
        k(    3) = (   0.0000000   0.1237179   0.0000000), wk =   0.0400000
        k(    4) = (   0.0000000   0.1855769   0.0000000), wk =   0.0400000
        k(    5) = (   0.0000000   0.2474358   0.0000000), wk =   0.0400000
        k(    6) = (   0.0000000   0.3092948   0.0000000), wk =   0.0400000
        k(    7) = (   0.0000000   0.3711537   0.0000000), wk =   0.0400000
        k(    8) = (   0.0000000   0.4330127   0.0000000), wk =   0.0400000
        k(    9) = (   0.0000000   0.4948717   0.0000000), wk =   0.0400000
        k(   10) = (   0.0000000   0.5567306   0.0000000), wk =   0.0400000
        k(   11) = (   0.0000000   0.6185896   0.0000000), wk =   0.0400000
        k(   12) = (   0.0000000   0.6804485   0.0000000), wk =   0.0400000
        k(   13) = (   0.0000000   0.7423075   0.0000000), wk =   0.0400000
        k(   14) = (   0.0000000   0.8041664   0.0000000), wk =   0.0400000
        k(   15) = (   0.0000000   0.8660254   0.0000000), wk =   0.0400000
        k(   16) = (   0.0433013   0.8227241   0.0000000), wk =   0.0400000
        k(   17) = (   0.0866025   0.7794229   0.0000000), wk =   0.0400000
        k(   18) = (   0.1299038   0.7361216   0.0000000), wk =   0.0400000
        k(   19) = (   0.1732051   0.6928203   0.0000000), wk =   0.0400000
        k(   20) = (   0.2165064   0.6495191   0.0000000), wk =   0.0400000
        k(   21) = (   0.2598076   0.6062178   0.0000000), wk =   0.0400000
        k(   22) = (   0.3031089   0.5629165   0.0000000), wk =   0.0400000
        k(   23) = (   0.3464102   0.5196152   0.0000000), wk =   0.0400000
        k(   24) = (   0.3897114   0.4763140   0.0000000), wk =   0.0400000
        k(   25) = (   0.4330127   0.4330127   0.0000000), wk =   0.0400000
        k(   26) = (   0.3936479   0.3936479   0.0000000), wk =   0.0400000
        k(   27) = (   0.3542831   0.3542831   0.0000000), wk =   0.0400000
        k(   28) = (   0.3149183   0.3149183   0.0000000), wk =   0.0400000
        k(   29) = (   0.2755535   0.2755535   0.0000000), wk =   0.0400000
        k(   30) = (   0.2361887   0.2361887   0.0000000), wk =   0.0400000
        k(   31) = (   0.1968240   0.1968240   0.0000000), wk =   0.0400000
        k(   32) = (   0.1574592   0.1574592   0.0000000), wk =   0.0400000
        k(   33) = (   0.1180944   0.1180944   0.0000000), wk =   0.0400000
        k(   34) = (   0.0787296   0.0787296   0.0000000), wk =   0.0400000
        k(   35) = (   0.0393648   0.0393648   0.0000000), wk =   0.0400000
        k(   36) = (   0.0000000   0.0000000   0.0000000), wk =   0.0400000
        k(   37) = (   0.0309295   0.0309295   0.0309295), wk =   0.0400000
        k(   38) = (   0.0618590   0.0618590   0.0618590), wk =   0.0400000
        k(   39) = (   0.0927884   0.0927884   0.0927884), wk =   0.0400000
        k(   40) = (   0.1237179   0.1237179   0.1237179), wk =   0.0400000
        k(   41) = (   0.1546474   0.1546474   0.1546474), wk =   0.0400000
        k(   42) = (   0.1855769   0.1855769   0.1855769), wk =   0.0400000
        k(   43) = (   0.2165064   0.2165064   0.2165064), wk =   0.0400000
        k(   44) = (   0.2474358   0.2474358   0.2474358), wk =   0.0400000
        k(   45) = (   0.2783653   0.2783653   0.2783653), wk =   0.0400000
        k(   46) = (   0.3092948   0.3092948   0.3092948), wk =   0.0400000
        k(   47) = (   0.3402243   0.3402243   0.3402243), wk =   0.0400000
        k(   48) = (   0.3711537   0.3711537   0.3711537), wk =   0.0400000
        k(   49) = (   0.4020832   0.4020832   0.4020832), wk =   0.0400000
        k(   50) = (   0.4330127   0.4330127   0.4330127), wk =   0.0400000

                       cryst. coord.
        k(    1) = (   0.0000000   0.0000000   0.0000000), wk =   0.0400000
        k(    2) = (   0.0357143  -0.0357143   0.0357143), wk =   0.0400000
        k(    3) = (   0.0714286  -0.0714286   0.0714286), wk =   0.0400000
        k(    4) = (   0.1071429  -0.1071429   0.1071429), wk =   0.0400000
        k(    5) = (   0.1428571  -0.1428571   0.1428571), wk =   0.0400000
        k(    6) = (   0.1785714  -0.1785714   0.1785714), wk =   0.0400000
        k(    7) = (   0.2142857  -0.2142857   0.2142857), wk =   0.0400000
        k(    8) = (   0.2500000  -0.2500000   0.2500000), wk =   0.0400000
        k(    9) = (   0.2857143  -0.2857143   0.2857143), wk =   0.0400000
        k(   10) = (   0.3214286  -0.3214286   0.3214286), wk =   0.0400000
        k(   11) = (   0.3571429  -0.3571429   0.3571429), wk =   0.0400000
        k(   12) = (   0.3928571  -0.3928571   0.3928571), wk =   0.0400000
        k(   13) = (   0.4285714  -0.4285714   0.4285714), wk =   0.0400000
        k(   14) = (   0.4642857  -0.4642857   0.4642857), wk =   0.0400000
        k(   15) = (   0.5000000  -0.5000000   0.5000000), wk =   0.0400000
        k(   16) = (   0.4500000  -0.4500000   0.5000000), wk =   0.0400000
        k(   17) = (   0.4000000  -0.4000000   0.5000000), wk =   0.0400000
        k(   18) = (   0.3500000  -0.3500000   0.5000000), wk =   0.0400000
        k(   19) = (   0.3000000  -0.3000000   0.5000000), wk =   0.0400000
        k(   20) = (   0.2500000  -0.2500000   0.5000000), wk =   0.0400000
        k(   21) = (   0.2000000  -0.2000000   0.5000000), wk =   0.0400000
        k(   22) = (   0.1500000  -0.1500000   0.5000000), wk =   0.0400000
        k(   23) = (   0.1000000  -0.1000000   0.5000000), wk =   0.0400000
        k(   24) = (   0.0500000  -0.0500000   0.5000000), wk =   0.0400000
        k(   25) = (   0.0000000   0.0000000   0.5000000), wk =   0.0400000
        k(   26) = (   0.0000000   0.0000000   0.4545455), wk =   0.0400000
        k(   27) = (   0.0000000   0.0000000   0.4090909), wk =   0.0400000
        k(   28) = (   0.0000000   0.0000000   0.3636364), wk =   0.0400000
        k(   29) = (   0.0000000   0.0000000   0.3181818), wk =   0.0400000
        k(   30) = (   0.0000000   0.0000000   0.2727273), wk =   0.0400000
        k(   31) = (   0.0000000   0.0000000   0.2272727), wk =   0.0400000
        k(   32) = (   0.0000000   0.0000000   0.1818182), wk =   0.0400000
        k(   33) = (   0.0000000   0.0000000   0.1363636), wk =   0.0400000
        k(   34) = (   0.0000000   0.0000000   0.0909091), wk =   0.0400000
        k(   35) = (   0.0000000   0.0000000   0.0454545), wk =   0.0400000
        k(   36) = (   0.0000000   0.0000000   0.0000000), wk =   0.0400000
        k(   37) = (   0.0178571   0.0178571   0.0178571), wk =   0.0400000
        k(   38) = (   0.0357143   0.0357143   0.0357143), wk =   0.0400000
        k(   39) = (   0.0535714   0.0535714   0.0535714), wk =   0.0400000
        k(   40) = (   0.0714286   0.0714286   0.0714286), wk =   0.0400000
        k(   41) = (   0.0892857   0.0892857   0.0892857), wk =   0.0400000
        k(   42) = (   0.1071429   0.1071429   0.1071429), wk =   0.0400000
        k(   43) = (   0.1250000   0.1250000   0.1250000), wk =   0.0400000
        k(   44) = (   0.1428571   0.1428571   0.1428571), wk =   0.0400000
        k(   45) = (   0.1607143   0.1607143   0.1607143), wk =   0.0400000
        k(   46) = (   0.1785714   0.1785714   0.1785714), wk =   0.0400000
        k(   47) = (   0.1964286   0.1964286   0.1964286), wk =   0.0400000
        k(   48) = (   0.2142857   0.2142857   0.2142857), wk =   0.0400000
        k(   49) = (   0.2321429   0.2321429   0.2321429), wk =   0.0400000
        k(   50) = (   0.2500000   0.2500000   0.2500000), wk =   0.0400000

     Dense  grid:     5775 G-vectors     FFT dimensions: (  25,  25,  25)

     Smooth grid:     4093 G-vectors     FFT dimensions: (  24,  24,  24)

     Estimated max dynamical RAM per process >       7.09Mb

     Check: negative/imaginary core charge=   -0.000002    0.000000

     The potential is recalculated from file :
     ./pwscf.save/charge-density.dat

     Starting wfc are   13 randomized atomic wfcs

     Band Structure Calculation
     Davidson diagonalization with overlap

     Computing kpt #:     1
     total cpu time spent up to now is        0.9 secs

     Computing kpt #:     2
     total cpu time spent up to now is        1.2 secs

     Computing kpt #:     3
     total cpu time spent up to now is        1.3 secs

     Computing kpt #:     4
     total cpu time spent up to now is        1.5 secs

     Computing kpt #:     5
     total cpu time spent up to now is        1.8 secs

     Computing kpt #:     6
     total cpu time spent up to now is        2.1 secs

     Computing kpt #:     7
     total cpu time spent up to now is        2.2 secs

     Computing kpt #:     8
     total cpu time spent up to now is        2.3 secs

     Computing kpt #:     9
     total cpu time spent up to now is        2.5 secs

     Computing kpt #:    10
     total cpu time spent up to now is        2.6 secs

     Computing kpt #:    11
     total cpu time spent up to now is        2.7 secs

     Computing kpt #:    12
     total cpu time spent up to now is        2.9 secs

     Computing kpt #:    13
     total cpu time spent up to now is        3.1 secs

     Computing kpt #:    14
     total cpu time spent up to now is        3.3 secs

     Computing kpt #:    15
     total cpu time spent up to now is        3.4 secs

     Computing kpt #:    16
     total cpu time spent up to now is        3.6 secs

     Computing kpt #:    17
     total cpu time spent up to now is        3.7 secs

     Computing kpt #:    18
     total cpu time spent up to now is        3.9 secs

     Computing kpt #:    19
     total cpu time spent up to now is        4.0 secs

     Computing kpt #:    20
     total cpu time spent up to now is        4.1 secs

     Computing kpt #:    21
     total cpu time spent up to now is        4.2 secs

     Computing kpt #:    22
     total cpu time spent up to now is        4.4 secs

     Computing kpt #:    23
     total cpu time spent up to now is        4.5 secs

     Computing kpt #:    24
     total cpu time spent up to now is        4.6 secs

     Computing kpt #:    25
     total cpu time spent up to now is        4.8 secs

     Computing kpt #:    26
     total cpu time spent up to now is        4.9 secs

     Computing kpt #:    27
     total cpu time spent up to now is        5.1 secs

     Computing kpt #:    28
     total cpu time spent up to now is        5.2 secs

     Computing kpt #:    29
     total cpu time spent up to now is        5.3 secs

     Computing kpt #:    30
     total cpu time spent up to now is        5.5 secs

     Computing kpt #:    31
     total cpu time spent up to now is        5.6 secs

     Computing kpt #:    32
     total cpu time spent up to now is        5.7 secs

     Computing kpt #:    33
     total cpu time spent up to now is        5.9 secs

     Computing kpt #:    34
     total cpu time spent up to now is        6.1 secs

     Computing kpt #:    35
     total cpu time spent up to now is        6.3 secs

     Computing kpt #:    36
     total cpu time spent up to now is        6.4 secs

     Computing kpt #:    37
     total cpu time spent up to now is        6.5 secs

     Computing kpt #:    38
     total cpu time spent up to now is        6.7 secs

     Computing kpt #:    39
     total cpu time spent up to now is        6.9 secs

     Computing kpt #:    40
     total cpu time spent up to now is        7.0 secs

     Computing kpt #:    41
     total cpu time spent up to now is        7.2 secs

     Computing kpt #:    42
     total cpu time spent up to now is        7.3 secs

     Computing kpt #:    43
     total cpu time spent up to now is        7.5 secs

     Computing kpt #:    44
     total cpu time spent up to now is        7.6 secs

     Computing kpt #:    45
     total cpu time spent up to now is        7.8 secs

     Computing kpt #:    46
     total cpu time spent up to now is        7.9 secs

     Computing kpt #:    47
     total cpu time spent up to now is        8.0 secs

     Computing kpt #:    48
     total cpu time spent up to now is        8.1 secs

     Computing kpt #:    49
     total cpu time spent up to now is        8.3 secs

     Computing kpt #:    50
     total cpu time spent up to now is        8.4 secs

     ethr =  7.69E-10,  avg # of iterations = 16.2

     total cpu time spent up to now is        8.4 secs

     End of band structure calculation

          k = 0.0000 0.0000 0.0000 (   531 PWs)   bands (ev):

   -36.3700 -11.6728 -11.6728 -11.6728  12.1000  18.3662  18.3662  18.3662
    21.2825  21.2825  32.2096

          k = 0.0000 0.0619 0.0000 (   535 PWs)   bands (ev):

   -36.3639 -11.6988 -11.6841 -11.6841  12.2062  18.3540  18.3540  18.4137
    21.1190  21.3371  32.3666

          k = 0.0000 0.1237 0.0000 (   523 PWs)   bands (ev):

   -36.3461 -11.7726 -11.7173 -11.7173  12.5162  18.3272  18.3272  18.5553
    20.6665  21.4953  32.7959

          k = 0.0000 0.1856 0.0000 (   527 PWs)   bands (ev):

   -36.3178 -11.8842 -11.7711 -11.7711  13.0038  18.3117  18.3117  18.7886
    20.0129  21.7380  33.4018

          k = 0.0000 0.2474 0.0000 (   526 PWs)   bands (ev):

   -36.2807 -12.0187 -11.8430 -11.8430  13.6253  18.3400  18.3400  19.1095
    19.2495  22.0301  34.0891

          k = 0.0000 0.3093 0.0000 (   526 PWs)   bands (ev):

   -36.2374 -12.1602 -11.9299 -11.9299  14.3167  18.4432  18.4432  18.4485
    19.5116  22.3196  33.9757

          k = 0.0000 0.3712 0.0000 (   522 PWs)   bands (ev):

   -36.1904 -12.2938 -12.0276 -12.0276  14.9883  17.6602  18.6463  18.6463
    19.9857  22.5579  33.0045

          k = 0.0000 0.4330 0.0000 (   522 PWs)   bands (ev):

   -36.1424 -12.4083 -12.1313 -12.1313  15.5200  16.9186  18.9665  18.9665
    20.5192  22.7585  32.6698

          k = 0.0000 0.4949 0.0000 (   510 PWs)   bands (ev):

   -36.0961 -12.4968 -12.2357 -12.2357  15.7841  16.2467  19.4141  19.4141
    21.0948  23.0412  32.9509

          k = 0.0000 0.5567 0.0000 (   514 PWs)   bands (ev):

   -36.0537 -12.5572 -12.3356 -12.3356  15.6597  15.7242  19.9917  19.9917
    21.6892  23.5461  33.4297

          k = 0.0000 0.6186 0.0000 (   514 PWs)   bands (ev):

   -36.0170 -12.5919 -12.4256 -12.4256  15.1685  15.4151  20.6949  20.6949
    22.2711  24.2975  31.8033

          k = 0.0000 0.6804 0.0000 (   510 PWs)   bands (ev):

   -35.9874 -12.6067 -12.5011 -12.5011  14.7802  15.0044  21.5075  21.5075
    22.8013  25.2031  30.2301

          k = 0.0000 0.7423 0.0000 (   498 PWs)   bands (ev):

   -35.9657 -12.6092 -12.5581 -12.5581  14.4997  14.6248  22.3883  22.3883
    23.2328  26.1125  28.7891

          k = 0.0000 0.8042 0.0000 (   490 PWs)   bands (ev):

   -35.9524 -12.6070 -12.5935 -12.5935  14.3302  14.3652  23.2146  23.2146
    23.5175  26.8246  27.6209

          k = 0.0000 0.8660 0.0000 (   490 PWs)   bands (ev):

   -35.9480 -12.6056 -12.6056 -12.6056  14.2736  14.2736  23.6173  23.6173
    23.6173  27.1033  27.1033

          k = 0.0433 0.8227 0.0000 (   490 PWs)   bands (ev):

   -35.9523 -12.6165 -12.5938 -12.5844  14.3373  14.3555  23.1210  23.2055
    23.6348  27.0849  27.3634

          k = 0.0866 0.7794 0.0000 (   492 PWs)   bands (ev):

   -35.9648 -12.6482 -12.5596 -12.5225  14.5194  14.5992  22.0851  22.2823
    23.6860  27.0157  27.8781

          k = 0.1299 0.7361 0.0000 (   506 PWs)   bands (ev):

   -35.9842 -12.6973 -12.5058 -12.4251  14.7878  14.9983  20.9378  21.2450
    23.7668  26.8554  28.3788

          k = 0.1732 0.6928 0.0000 (   508 PWs)   bands (ev):

   -36.0086 -12.7584 -12.4372 -12.3006  15.0726  15.5427  19.8300  20.3357
    23.8704  26.5488  28.8040

          k = 0.2165 0.6495 0.0000 (   518 PWs)   bands (ev):

   -36.0355 -12.8253 -12.3602 -12.1601  15.2483  16.2189  18.8257  19.7553
    23.9880  26.0499  29.1611

          k = 0.2598 0.6062 0.0000 (   518 PWs)   bands (ev):

   -36.0623 -12.8914 -12.2820 -12.0168  15.1879  17.0099  17.9624  19.6583
    24.1086  25.3490  29.4614

          k = 0.3031 0.5629 0.0000 (   522 PWs)   bands (ev):

   -36.0863 -12.9503 -12.2105 -11.8851  14.9193  17.2660  17.8943  20.0051
    24.2200  24.4807  29.7056

          k = 0.3464 0.5196 0.0000 (   520 PWs)   bands (ev):

   -36.1053 -12.9966 -12.1530 -11.7788  14.6024  16.7552  18.8400  20.5741
    23.5114  24.3103  29.8802

          k = 0.3897 0.4763 0.0000 (   520 PWs)   bands (ev):

   -36.1174 -13.0261 -12.1158 -11.7096  14.3686  16.4433  19.7710  21.0986
    22.5512  24.3693  29.8696

          k = 0.4330 0.4330 0.0000 (   512 PWs)   bands (ev):

   -36.1216 -13.0362 -12.1029 -11.6857  14.2843  16.3384  20.3123  21.3164
    21.9978  24.3898  29.6292

          k = 0.3936 0.3936 0.0000 (   520 PWs)   bands (ev):

   -36.1268 -13.0105 -12.0945 -11.6854  14.3107  16.3710  20.0633  21.3441
    21.9629  24.1706  29.7574

          k = 0.3543 0.3543 0.0000 (   523 PWs)   bands (ev):

   -36.1418 -12.9351 -12.0700 -11.6846  14.3772  16.4677  19.4912  21.3256
    21.8687  23.5895  30.1259

          k = 0.3149 0.3149 0.0000 (   523 PWs)   bands (ev):

   -36.1653 -12.8150 -12.0311 -11.6833  14.4406  16.6246  18.8297  21.2079
    21.7402  22.8007  30.6882

          k = 0.2756 0.2756 0.0000 (   521 PWs)   bands (ev):

   -36.1955 -12.6585 -11.9807 -11.6817  14.4185  16.8349  18.2662  21.0284
    21.6051  21.9379  31.3714

          k = 0.2362 0.2362 0.0000 (   519 PWs)   bands (ev):

   -36.2296 -12.4767 -11.9226 -11.6800  14.2140  17.0882  17.9520  20.8429
    21.0894  21.4850  32.0638

          k = 0.1968 0.1968 0.0000 (   525 PWs)   bands (ev):

   -36.2649 -12.2833 -11.8615 -11.6781  13.8124  17.3698  17.9181  20.3106
    20.7081  21.3925  32.5970

          k = 0.1575 0.1575 0.0000 (   527 PWs)   bands (ev):

   -36.2986 -12.0936 -11.8021 -11.6764  13.3119  17.6599  18.0504  19.6369
    20.6775  21.3313  32.8045

          k = 0.1181 0.1181 0.0000 (   527 PWs)   bands (ev):

   -36.3280 -11.9238 -11.7495 -11.6749  12.8271  17.9333  18.2064  19.0920
    20.7827  21.2981  32.7023

          k = 0.0787 0.0787 0.0000 (   535 PWs)   bands (ev):

   -36.3507 -11.7893 -11.7082 -11.6738  12.4365  18.1608  18.3089  18.6922
    20.9910  21.2850  32.4740

          k = 0.0394 0.0394 0.0000 (   533 PWs)   bands (ev):

   -36.3651 -11.7027 -11.6819 -11.6731  12.1860  18.3127  18.3546  18.4482
    21.1969  21.2824  32.2819

          k = 0.0000 0.0000 0.0000 (   531 PWs)   bands (ev):

   -36.3700 -11.6728 -11.6728 -11.6728  12.1000  18.3662  18.3662  18.3662
    21.2825  21.2825  32.2096

          k = 0.0309 0.0309 0.0309 (   531 PWs)   bands (ev):

   -36.3655 -11.7031 -11.6758 -11.6758  12.1796  18.3290  18.3290  18.4559
    21.2430  21.2430  32.2610

          k = 0.0619 0.0619 0.0619 (   531 PWs)   bands (ev):

   -36.3522 -11.7902 -11.6849 -11.6849  12.4121  18.2139  18.2139  18.7255
    21.1515  21.1515  32.4151

          k = 0.0928 0.0928 0.0928 (   534 PWs)   bands (ev):

   -36.3311 -11.9230 -11.7008 -11.7008  12.7789  18.0175  18.0175  19.1763
    21.0666  21.0666  32.6719

          k = 0.1237 0.1237 0.1237 (   528 PWs)   bands (ev):

   -36.3039 -12.0859 -11.7239 -11.7239  13.2536  17.7522  17.7522  19.8070
    21.0368  21.0368  33.0313

          k = 0.1546 0.1546 0.1546 (   522 PWs)   bands (ev):

   -36.2726 -12.2603 -11.7553 -11.7553  13.8067  17.4494  17.4494  20.6106
    21.0782  21.0782  33.4930

          k = 0.1856 0.1856 0.1856 (   522 PWs)   bands (ev):

   -36.2394 -12.4280 -11.7955 -11.7955  14.4090  17.1489  17.1489  21.1818
    21.1818  21.5701  33.7809

          k = 0.2165 0.2165 0.2165 (   525 PWs)   bands (ev):

   -36.2067 -12.5724 -11.8451 -11.8451  15.0334  16.8853  16.8853  21.3280
    21.3280  22.6556  33.2944

          k = 0.2474 0.2474 0.2474 (   516 PWs)   bands (ev):

   -36.1766 -12.6803 -11.9037 -11.9037  15.6524  16.6824  16.6824  21.4959
    21.4959  23.8238  32.7365

          k = 0.2784 0.2784 0.2784 (   510 PWs)   bands (ev):

   -36.1509 -12.7426 -11.9708 -11.9708  16.2328  16.5534  16.5534  21.6661
    21.6661  25.0183  31.8573

          k = 0.3093 0.3093 0.3093 (   516 PWs)   bands (ev):

   -36.1306 -12.7545 -12.0449 -12.0449  16.5025  16.5025  16.7305  21.8224
    21.8224  26.1725  30.3362

          k = 0.3402 0.3402 0.3402 (   517 PWs)   bands (ev):

   -36.1162 -12.7160 -12.1242 -12.1242  16.5262  16.5262  17.0880  21.9530
    21.9530  27.2070  29.1447

          k = 0.3712 0.3712 0.3712 (   514 PWs)   bands (ev):

   -36.1073 -12.6318 -12.2059 -12.2059  16.6142  16.6142  17.2464  22.0503
    22.0503  27.8299  28.6080

          k = 0.4021 0.4021 0.4021 (   526 PWs)   bands (ev):

   -36.1031 -12.5108 -12.2875 -12.2875  16.7502  16.7502  17.1768  22.1106
    22.1106  27.6074  29.1943

          k = 0.4330 0.4330 0.4330 (   532 PWs)   bands (ev):

   -36.1020 -12.3660 -12.3660 -12.3660  16.9126  16.9126  16.9126  22.1315
    22.1315  27.4951  29.9546

     Writing output data file pwscf.save

     init_run     :      0.62s CPU      0.49s WALL (       1 calls)
     electrons    :      8.67s CPU      7.58s WALL (       1 calls)

     Called by init_run:
     wfcinit      :      0.00s CPU      0.00s WALL (       1 calls)
     wfcinit:atom :      0.00s CPU      0.02s WALL (      50 calls)
     wfcinit:wfcr :      0.66s CPU      0.63s WALL (      50 calls)
     potinit      :      0.03s CPU      0.02s WALL (       1 calls)

     Called by electrons:
     c_bands      :      8.67s CPU      7.58s WALL (       1 calls)
     v_of_rho     :      0.02s CPU      0.01s WALL (       1 calls)
     v_h          :      0.00s CPU      0.00s WALL (       1 calls)
     v_xc         :      0.02s CPU      0.01s WALL (       1 calls)
     newd         :      0.00s CPU      0.04s WALL (       1 calls)

     Called by c_bands:
     init_us_2    :      0.03s CPU      0.02s WALL (      50 calls)
     cegterg      :      7.83s CPU      6.78s WALL (      60 calls)

     Called by sum_band:

     Called by *egterg:
     h_psi        :      5.84s CPU      5.07s WALL (     919 calls)
     s_psi        :      0.19s CPU      0.08s WALL (     919 calls)
     g_psi        :      0.02s CPU      0.03s WALL (     809 calls)
     cdiaghg      :      1.55s CPU      1.66s WALL (     859 calls)
     cegterg:over :      0.31s CPU      0.19s WALL (     809 calls)
     cegterg:upda :      0.23s CPU      0.16s WALL (     809 calls)
     cegterg:last :      0.11s CPU      0.09s WALL (     160 calls)

     Called by h_psi:
     h_psi:pot    :      5.78s CPU      5.04s WALL (     919 calls)
     h_psi:calbec :      0.08s CPU      0.11s WALL (     919 calls)
     vloc_psi     :      5.61s CPU      4.82s WALL (     919 calls)
     add_vuspsi   :      0.08s CPU      0.09s WALL (     919 calls)

     General routines
     calbec       :      0.08s CPU      0.10s WALL (     919 calls)
     fft          :      0.00s CPU      0.01s WALL (      13 calls)
     ffts         :      0.02s CPU      0.01s WALL (       1 calls)
     fftw         :      5.28s CPU      4.43s WALL (   11386 calls)
     interpolate  :      0.02s CPU      0.01s WALL (       1 calls)
     davcio       :      0.00s CPU      0.00s WALL (      50 calls)

     Parallel routines
     fft_scatter  :      0.14s CPU      0.22s WALL (   11400 calls)

     PWSCF        :     9.72s CPU         8.68s WALL


   This run was terminated on:  17:53:31  25Feb2021            

=------------------------------------------------------------------------------=
   JOB DONE.
=------------------------------------------------------------------------------=
