
     Program PWSCF v.6.0 (svn rev. 13079) starts on 26Feb2021 at 15: 6:33 

     This program is part of the open-source Quantum ESPRESSO suite
     for quantum simulation of materials; please cite
         "P. Giannozzi et al., J. Phys.:Condens. Matter 21 395502 (2009);
          URL http://www.quantum-espresso.org", 
     in publications or presentations arising from this work. More details at
     http://www.quantum-espresso.org/quote

     Parallel version (MPI), running on     1 processors
     Reading input from espresso.pwi
Warning: card &IONS ignored
Warning: card / ignored
Warning: card &CELL ignored
Warning: card / ignored

     Current dimensions of program PWSCF are:
     Max number of different atomic species (ntypx) = 10
     Max number of k-points (npk) =  40000
     Max angular momentum in pseudopotentials (lmaxx) =  3
     Message from routine input:
     WARNING: "startingwfc" set to atomic+random may spoil restart

     Atomic positions and unit cell read from directory:
     ./pwscf.save/


     IMPORTANT: XC functional enforced from input :
     Exchange-correlation      = PBE ( 1  4  3  4 0 0)
     Any further DFT definition will be discarded
     Please, verify this is what you really want


     Subspace diagonalization in iterative solution of the eigenvalue problem:
     a serial algorithm will be used


     G-vector sticks info
     --------------------
     sticks:   dense  smooth     PW     G-vecs:    dense   smooth      PW
     Sum         661     517    163                21217    15175    2597



     bravais-lattice index     =            0
     lattice parameter (alat)  =       6.9174  a.u.
     unit-cell volume          =     444.3226 (a.u.)^3
     number of atoms/cell      =            2
     number of atomic types    =            1
     number of electrons       =        22.00
     number of Kohn-Sham states=           15
     kinetic-energy cutoff     =      40.0000  Ry
     charge density cutoff     =     200.0000  Ry
     Exchange-correlation      = PBE ( 1  4  3  4 0 0)

     celldm(1)=   6.917358  celldm(2)=   0.000000  celldm(3)=   0.000000
     celldm(4)=   0.000000  celldm(5)=   0.000000  celldm(6)=   0.000000

     crystal axes: (cart. coord. in units of alat)
               a(1) = (   1.000000   0.000000   0.000000 )  
               a(2) = (  -0.500000   0.866025   0.000000 )  
               a(3) = (   0.000000   0.000000   1.550055 )  

     reciprocal axes: (cart. coord. in units 2 pi/alat)
               b(1) = (  1.000000  0.577350 -0.000000 )  
               b(2) = (  0.000000  1.154701  0.000000 )  
               b(3) = (  0.000000 -0.000000  0.645138 )  


     PseudoPot. # 1 for Y  read from file:
     /home/inukai/tango/tests/1element/qe_fit_v3_Y/../pseudo/y_pbe_v1.4.uspp.F.UPF
     MD5 check sum: d034151ed7554c50b6e82763ed42c788
     Pseudo is Ultrasoft + core correction, Zval = 11.0
     Generated by new atomic code, or converted to UPF format
     Using radial grid of  885 points,  6 beta functions with: 
                l(1) =   0
                l(2) =   0
                l(3) =   1
                l(4) =   1
                l(5) =   2
                l(6) =   2
     Q(r) pseudized with  8 coefficients,  rinner =    1.200   1.200   1.200
                                                       1.200   1.200

     atomic species   valence    mass     pseudopotential
        Y             11.00    88.90584     Y ( 1.00)

     24 Sym. Ops., with inversion, found (12 have fractional translation)


                                    s                        frac. trans.

      isym =  1     identity                                     

 cryst.   s( 1) = (     1          0          0      )
                  (     0          1          0      )
                  (     0          0          1      )

 cart.    s( 1) = (  1.0000000  0.0000000  0.0000000 )
                  (  0.0000000  1.0000000  0.0000000 )
                  (  0.0000000  0.0000000  1.0000000 )


      isym =  2     180 deg rotation - cart. axis [0,0,1]        

 cryst.   s( 2) = (    -1          0          0      )    f =(  0.0000000 )
                  (     0         -1          0      )       (  0.0000000 )
                  (     0          0          1      )       (  0.5000000 )

 cart.    s( 2) = ( -1.0000000  0.0000000  0.0000000 )    f =(  0.0000000 )
                  (  0.0000000 -1.0000000  0.0000000 )       (  0.0000000 )
                  (  0.0000000  0.0000000  1.0000000 )       (  0.7750274 )


      isym =  3     180 deg rotation - cart. axis [0,1,0]        

 cryst.   s( 3) = (    -1          0          0      )    f =(  0.0000000 )
                  (     1          1          0      )       (  0.0000000 )
                  (     0          0         -1      )       (  0.5000000 )

 cart.    s( 3) = ( -1.0000000  0.0000000  0.0000000 )    f =(  0.0000000 )
                  (  0.0000000  1.0000000  0.0000000 )       (  0.0000000 )
                  (  0.0000000  0.0000000 -1.0000000 )       (  0.7750274 )


      isym =  4     180 deg rotation - cart. axis [1,0,0]        

 cryst.   s( 4) = (     1          0          0      )
                  (    -1         -1          0      )
                  (     0          0         -1      )

 cart.    s( 4) = (  1.0000000  0.0000000  0.0000000 )
                  (  0.0000000 -1.0000000  0.0000000 )
                  (  0.0000000  0.0000000 -1.0000000 )


      isym =  5      60 deg rotation - cryst. axis [0,0,1]       

 cryst.   s( 5) = (     1          1          0      )    f =(  0.0000000 )
                  (    -1          0          0      )       (  0.0000000 )
                  (     0          0          1      )       (  0.5000000 )

 cart.    s( 5) = (  0.5000000 -0.8660254  0.0000000 )    f =(  0.0000000 )
                  (  0.8660254  0.5000000  0.0000000 )       (  0.0000000 )
                  (  0.0000000  0.0000000  1.0000000 )       (  0.7750274 )


      isym =  6      60 deg rotation - cryst. axis [0,0,-1]      

 cryst.   s( 6) = (     0         -1          0      )    f =(  0.0000000 )
                  (     1          1          0      )       (  0.0000000 )
                  (     0          0          1      )       (  0.5000000 )

 cart.    s( 6) = (  0.5000000  0.8660254  0.0000000 )    f =(  0.0000000 )
                  ( -0.8660254  0.5000000  0.0000000 )       (  0.0000000 )
                  (  0.0000000  0.0000000  1.0000000 )       (  0.7750274 )


      isym =  7     120 deg rotation - cryst. axis [0,0,1]       

 cryst.   s( 7) = (     0          1          0      )
                  (    -1         -1          0      )
                  (     0          0          1      )

 cart.    s( 7) = ( -0.5000000 -0.8660254  0.0000000 )
                  (  0.8660254 -0.5000000  0.0000000 )
                  (  0.0000000  0.0000000  1.0000000 )


      isym =  8     120 deg rotation - cryst. axis [0,0,-1]      

 cryst.   s( 8) = (    -1         -1          0      )
                  (     1          0          0      )
                  (     0          0          1      )

 cart.    s( 8) = ( -0.5000000  0.8660254  0.0000000 )
                  ( -0.8660254 -0.5000000  0.0000000 )
                  (  0.0000000  0.0000000  1.0000000 )


      isym =  9     180 deg rotation - cryst. axis [1,-1,0]      

 cryst.   s( 9) = (     0         -1          0      )    f =(  0.0000000 )
                  (    -1          0          0      )       (  0.0000000 )
                  (     0          0         -1      )       (  0.5000000 )

 cart.    s( 9) = (  0.5000000 -0.8660254  0.0000000 )    f =(  0.0000000 )
                  ( -0.8660254 -0.5000000  0.0000000 )       (  0.0000000 )
                  (  0.0000000  0.0000000 -1.0000000 )       (  0.7750274 )


      isym = 10     180 deg rotation - cryst. axis [2,1,0]       

 cryst.   s(10) = (     1          1          0      )    f =(  0.0000000 )
                  (     0         -1          0      )       (  0.0000000 )
                  (     0          0         -1      )       (  0.5000000 )

 cart.    s(10) = (  0.5000000  0.8660254  0.0000000 )    f =(  0.0000000 )
                  (  0.8660254 -0.5000000  0.0000000 )       (  0.0000000 )
                  (  0.0000000  0.0000000 -1.0000000 )       (  0.7750274 )


      isym = 11     180 deg rotation - cryst. axis [0,1,0]       

 cryst.   s(11) = (    -1         -1          0      )
                  (     0          1          0      )
                  (     0          0         -1      )

 cart.    s(11) = ( -0.5000000 -0.8660254  0.0000000 )
                  ( -0.8660254  0.5000000  0.0000000 )
                  (  0.0000000  0.0000000 -1.0000000 )


      isym = 12     180 deg rotation - cryst. axis [1,1,0]       

 cryst.   s(12) = (     0          1          0      )
                  (     1          0          0      )
                  (     0          0         -1      )

 cart.    s(12) = ( -0.5000000  0.8660254  0.0000000 )
                  (  0.8660254  0.5000000  0.0000000 )
                  (  0.0000000  0.0000000 -1.0000000 )


      isym = 13     inversion                                    

 cryst.   s(13) = (    -1          0          0      )
                  (     0         -1          0      )
                  (     0          0         -1      )

 cart.    s(13) = ( -1.0000000  0.0000000  0.0000000 )
                  (  0.0000000 -1.0000000  0.0000000 )
                  (  0.0000000  0.0000000 -1.0000000 )


      isym = 14     inv. 180 deg rotation - cart. axis [0,0,1]   

 cryst.   s(14) = (     1          0          0      )    f =(  0.0000000 )
                  (     0          1          0      )       (  0.0000000 )
                  (     0          0         -1      )       (  0.5000000 )

 cart.    s(14) = (  1.0000000  0.0000000  0.0000000 )    f =(  0.0000000 )
                  (  0.0000000  1.0000000  0.0000000 )       (  0.0000000 )
                  (  0.0000000  0.0000000 -1.0000000 )       (  0.7750274 )


      isym = 15     inv. 180 deg rotation - cart. axis [0,1,0]   

 cryst.   s(15) = (     1          0          0      )    f =(  0.0000000 )
                  (    -1         -1          0      )       (  0.0000000 )
                  (     0          0          1      )       (  0.5000000 )

 cart.    s(15) = (  1.0000000  0.0000000  0.0000000 )    f =(  0.0000000 )
                  (  0.0000000 -1.0000000  0.0000000 )       (  0.0000000 )
                  (  0.0000000  0.0000000  1.0000000 )       (  0.7750274 )


      isym = 16     inv. 180 deg rotation - cart. axis [1,0,0]   

 cryst.   s(16) = (    -1          0          0      )
                  (     1          1          0      )
                  (     0          0          1      )

 cart.    s(16) = ( -1.0000000  0.0000000  0.0000000 )
                  (  0.0000000  1.0000000  0.0000000 )
                  (  0.0000000  0.0000000  1.0000000 )


      isym = 17     inv.  60 deg rotation - cryst. axis [0,0,1]  

 cryst.   s(17) = (    -1         -1          0      )    f =(  0.0000000 )
                  (     1          0          0      )       (  0.0000000 )
                  (     0          0         -1      )       (  0.5000000 )

 cart.    s(17) = ( -0.5000000  0.8660254  0.0000000 )    f =(  0.0000000 )
                  ( -0.8660254 -0.5000000  0.0000000 )       (  0.0000000 )
                  (  0.0000000  0.0000000 -1.0000000 )       (  0.7750274 )


      isym = 18     inv.  60 deg rotation - cryst. axis [0,0,-1] 

 cryst.   s(18) = (     0          1          0      )    f =(  0.0000000 )
                  (    -1         -1          0      )       (  0.0000000 )
                  (     0          0         -1      )       (  0.5000000 )

 cart.    s(18) = ( -0.5000000 -0.8660254  0.0000000 )    f =(  0.0000000 )
                  (  0.8660254 -0.5000000  0.0000000 )       (  0.0000000 )
                  (  0.0000000  0.0000000 -1.0000000 )       (  0.7750274 )


      isym = 19     inv. 120 deg rotation - cryst. axis [0,0,1]  

 cryst.   s(19) = (     0         -1          0      )
                  (     1          1          0      )
                  (     0          0         -1      )

 cart.    s(19) = (  0.5000000  0.8660254  0.0000000 )
                  ( -0.8660254  0.5000000  0.0000000 )
                  (  0.0000000  0.0000000 -1.0000000 )


      isym = 20     inv. 120 deg rotation - cryst. axis [0,0,-1] 

 cryst.   s(20) = (     1          1          0      )
                  (    -1          0          0      )
                  (     0          0         -1      )

 cart.    s(20) = (  0.5000000 -0.8660254  0.0000000 )
                  (  0.8660254  0.5000000  0.0000000 )
                  (  0.0000000  0.0000000 -1.0000000 )


      isym = 21     inv. 180 deg rotation - cryst. axis [1,-1,0] 

 cryst.   s(21) = (     0          1          0      )    f =(  0.0000000 )
                  (     1          0          0      )       (  0.0000000 )
                  (     0          0          1      )       (  0.5000000 )

 cart.    s(21) = ( -0.5000000  0.8660254  0.0000000 )    f =(  0.0000000 )
                  (  0.8660254  0.5000000  0.0000000 )       (  0.0000000 )
                  (  0.0000000  0.0000000  1.0000000 )       (  0.7750274 )


      isym = 22     inv. 180 deg rotation - cryst. axis [2,1,0]  

 cryst.   s(22) = (    -1         -1          0      )    f =(  0.0000000 )
                  (     0          1          0      )       (  0.0000000 )
                  (     0          0          1      )       (  0.5000000 )

 cart.    s(22) = ( -0.5000000 -0.8660254  0.0000000 )    f =(  0.0000000 )
                  ( -0.8660254  0.5000000  0.0000000 )       (  0.0000000 )
                  (  0.0000000  0.0000000  1.0000000 )       (  0.7750274 )


      isym = 23     inv. 180 deg rotation - cryst. axis [0,1,0]  

 cryst.   s(23) = (     1          1          0      )
                  (     0         -1          0      )
                  (     0          0          1      )

 cart.    s(23) = (  0.5000000  0.8660254  0.0000000 )
                  (  0.8660254 -0.5000000  0.0000000 )
                  (  0.0000000  0.0000000  1.0000000 )


      isym = 24     inv. 180 deg rotation - cryst. axis [1,1,0]  

 cryst.   s(24) = (     0         -1          0      )
                  (    -1          0          0      )
                  (     0          0          1      )

 cart.    s(24) = (  0.5000000 -0.8660254  0.0000000 )
                  ( -0.8660254 -0.5000000  0.0000000 )
                  (  0.0000000  0.0000000  1.0000000 )


   Cartesian axes

     site n.     atom                  positions (alat units)
         1           Y   tau(   1) = (   0.0000000   0.5773503   1.1625411  )
         2           Y   tau(   2) = (   0.5000000   0.2886751   0.3875137  )

   Crystallographic axes

     site n.     atom                  positions (cryst. coord.)
         1           Y   tau(   1) = (  0.3333333  0.6666667  0.7500000  )
         2           Y   tau(   2) = (  0.6666667  0.3333333  0.2500000  )

     number of k points=    50  gaussian smearing, width (Ry)=  0.0010
                       cart. coord. in units 2pi/alat
        k(    1) = (   0.0000000   0.0000000   0.0000000), wk =   0.0400000
        k(    2) = (   0.0833333   0.0481125   0.0000000), wk =   0.0400000
        k(    3) = (   0.1666667   0.0962250   0.0000000), wk =   0.0400000
        k(    4) = (   0.2500000   0.1443376   0.0000000), wk =   0.0400000
        k(    5) = (   0.3333333   0.1924501   0.0000000), wk =   0.0400000
        k(    6) = (   0.4166667   0.2405626   0.0000000), wk =   0.0400000
        k(    7) = (   0.5000000   0.2886751   0.0000000), wk =   0.0400000
        k(    8) = (   0.4444444   0.3849002   0.0000000), wk =   0.0400000
        k(    9) = (   0.3888889   0.4811252   0.0000000), wk =   0.0400000
        k(   10) = (   0.3333333   0.5773503   0.0000000), wk =   0.0400000
        k(   11) = (   0.2916667   0.5051815   0.0000000), wk =   0.0400000
        k(   12) = (   0.2500000   0.4330127   0.0000000), wk =   0.0400000
        k(   13) = (   0.2083333   0.3608439   0.0000000), wk =   0.0400000
        k(   14) = (   0.1666667   0.2886751   0.0000000), wk =   0.0400000
        k(   15) = (   0.1250000   0.2165064   0.0000000), wk =   0.0400000
        k(   16) = (   0.0833333   0.1443376   0.0000000), wk =   0.0400000
        k(   17) = (   0.0416667   0.0721688   0.0000000), wk =   0.0400000
        k(   18) = (   0.0000000   0.0000000   0.0000000), wk =   0.0400000
        k(   19) = (   0.0000000   0.0000000   0.1075231), wk =   0.0400000
        k(   20) = (   0.0000000   0.0000000   0.2150462), wk =   0.0400000
        k(   21) = (   0.0000000   0.0000000   0.3225692), wk =   0.0400000
        k(   22) = (   0.0714286   0.0412393   0.3225692), wk =   0.0400000
        k(   23) = (   0.1428571   0.0824786   0.3225692), wk =   0.0400000
        k(   24) = (   0.2142857   0.1237179   0.3225692), wk =   0.0400000
        k(   25) = (   0.2857143   0.1649572   0.3225692), wk =   0.0400000
        k(   26) = (   0.3571429   0.2061965   0.3225692), wk =   0.0400000
        k(   27) = (   0.4285714   0.2474358   0.3225692), wk =   0.0400000
        k(   28) = (   0.5000000   0.2886751   0.3225692), wk =   0.0400000
        k(   29) = (   0.4583333   0.3608439   0.3225692), wk =   0.0400000
        k(   30) = (   0.4166667   0.4330127   0.3225692), wk =   0.0400000
        k(   31) = (   0.3750000   0.5051815   0.3225692), wk =   0.0400000
        k(   32) = (   0.3333333   0.5773503   0.3225692), wk =   0.0400000
        k(   33) = (   0.2962963   0.5132002   0.3225692), wk =   0.0400000
        k(   34) = (   0.2592593   0.4490502   0.3225692), wk =   0.0400000
        k(   35) = (   0.2222222   0.3849002   0.3225692), wk =   0.0400000
        k(   36) = (   0.1851852   0.3207501   0.3225692), wk =   0.0400000
        k(   37) = (   0.1481481   0.2566001   0.3225692), wk =   0.0400000
        k(   38) = (   0.1111111   0.1924501   0.3225692), wk =   0.0400000
        k(   39) = (   0.0740741   0.1283001   0.3225692), wk =   0.0400000
        k(   40) = (   0.0370370   0.0641500   0.3225692), wk =   0.0400000
        k(   41) = (   0.0000000   0.0000000   0.3225692), wk =   0.0400000
        k(   42) = (   0.5000000   0.2886751   0.3225692), wk =   0.0400000
        k(   43) = (   0.5000000   0.2886751   0.2150462), wk =   0.0400000
        k(   44) = (   0.5000000   0.2886751   0.1075231), wk =   0.0400000
        k(   45) = (   0.5000000   0.2886751   0.0000000), wk =   0.0400000
        k(   46) = (   0.3333333   0.5773503   0.0000000), wk =   0.0400000
        k(   47) = (   0.3333333   0.5773503   0.0806423), wk =   0.0400000
        k(   48) = (   0.3333333   0.5773503   0.1612846), wk =   0.0400000
        k(   49) = (   0.3333333   0.5773503   0.2419269), wk =   0.0400000
        k(   50) = (   0.3333333   0.5773503   0.3225692), wk =   0.0400000

                       cryst. coord.
        k(    1) = (   0.0000000   0.0000000   0.0000000), wk =   0.0400000
        k(    2) = (   0.0833333   0.0000000   0.0000000), wk =   0.0400000
        k(    3) = (   0.1666667   0.0000000   0.0000000), wk =   0.0400000
        k(    4) = (   0.2500000   0.0000000   0.0000000), wk =   0.0400000
        k(    5) = (   0.3333333   0.0000000   0.0000000), wk =   0.0400000
        k(    6) = (   0.4166667  -0.0000000   0.0000000), wk =   0.0400000
        k(    7) = (   0.5000000   0.0000000   0.0000000), wk =   0.0400000
        k(    8) = (   0.4444444   0.1111111   0.0000000), wk =   0.0400000
        k(    9) = (   0.3888889   0.2222222   0.0000000), wk =   0.0400000
        k(   10) = (   0.3333333   0.3333333   0.0000000), wk =   0.0400000
        k(   11) = (   0.2916667   0.2916667   0.0000000), wk =   0.0400000
        k(   12) = (   0.2500000   0.2500000   0.0000000), wk =   0.0400000
        k(   13) = (   0.2083333   0.2083333   0.0000000), wk =   0.0400000
        k(   14) = (   0.1666667   0.1666667   0.0000000), wk =   0.0400000
        k(   15) = (   0.1250000   0.1250000   0.0000000), wk =   0.0400000
        k(   16) = (   0.0833333   0.0833333   0.0000000), wk =   0.0400000
        k(   17) = (   0.0416667   0.0416667   0.0000000), wk =   0.0400000
        k(   18) = (   0.0000000   0.0000000   0.0000000), wk =   0.0400000
        k(   19) = (   0.0000000   0.0000000   0.1666667), wk =   0.0400000
        k(   20) = (   0.0000000   0.0000000   0.3333333), wk =   0.0400000
        k(   21) = (   0.0000000   0.0000000   0.5000000), wk =   0.0400000
        k(   22) = (   0.0714286   0.0000000   0.5000000), wk =   0.0400000
        k(   23) = (   0.1428571   0.0000000   0.5000000), wk =   0.0400000
        k(   24) = (   0.2142857   0.0000000   0.5000000), wk =   0.0400000
        k(   25) = (   0.2857143   0.0000000   0.5000000), wk =   0.0400000
        k(   26) = (   0.3571429   0.0000000   0.5000000), wk =   0.0400000
        k(   27) = (   0.4285714   0.0000000   0.5000000), wk =   0.0400000
        k(   28) = (   0.5000000   0.0000000   0.5000000), wk =   0.0400000
        k(   29) = (   0.4583333   0.0833333   0.5000000), wk =   0.0400000
        k(   30) = (   0.4166667   0.1666667   0.5000000), wk =   0.0400000
        k(   31) = (   0.3750000   0.2500000   0.5000000), wk =   0.0400000
        k(   32) = (   0.3333333   0.3333333   0.5000000), wk =   0.0400000
        k(   33) = (   0.2962963   0.2962963   0.5000000), wk =   0.0400000
        k(   34) = (   0.2592593   0.2592593   0.5000000), wk =   0.0400000
        k(   35) = (   0.2222222   0.2222222   0.5000000), wk =   0.0400000
        k(   36) = (   0.1851852   0.1851852   0.5000000), wk =   0.0400000
        k(   37) = (   0.1481481   0.1481481   0.5000000), wk =   0.0400000
        k(   38) = (   0.1111111   0.1111111   0.5000000), wk =   0.0400000
        k(   39) = (   0.0740741   0.0740741   0.5000000), wk =   0.0400000
        k(   40) = (   0.0370370   0.0370370   0.5000000), wk =   0.0400000
        k(   41) = (   0.0000000   0.0000000   0.5000000), wk =   0.0400000
        k(   42) = (   0.5000000   0.0000000   0.5000000), wk =   0.0400000
        k(   43) = (   0.5000000   0.0000000   0.3333333), wk =   0.0400000
        k(   44) = (   0.5000000   0.0000000   0.1666667), wk =   0.0400000
        k(   45) = (   0.5000000   0.0000000   0.0000000), wk =   0.0400000
        k(   46) = (   0.3333333   0.3333333   0.0000000), wk =   0.0400000
        k(   47) = (   0.3333333   0.3333333   0.1250000), wk =   0.0400000
        k(   48) = (   0.3333333   0.3333333   0.2500000), wk =   0.0400000
        k(   49) = (   0.3333333   0.3333333   0.3750000), wk =   0.0400000
        k(   50) = (   0.3333333   0.3333333   0.5000000), wk =   0.0400000

     Dense  grid:    21217 G-vectors     FFT dimensions: (  32,  32,  50)

     Smooth grid:    15175 G-vectors     FFT dimensions: (  27,  27,  45)

     Estimated max dynamical RAM per process >      32.86Mb

     Check: negative/imaginary core charge=   -0.000001    0.000000

     The potential is recalculated from file :
     ./pwscf.save/charge-density.dat

     Starting wfc are   26 randomized atomic wfcs

     Band Structure Calculation
     Davidson diagonalization with overlap

     Computing kpt #:     1
     total cpu time spent up to now is        1.7 secs

     Computing kpt #:     2
     total cpu time spent up to now is        2.8 secs

     Computing kpt #:     3
     total cpu time spent up to now is        3.9 secs

     Computing kpt #:     4
     total cpu time spent up to now is        4.8 secs

     Computing kpt #:     5
     total cpu time spent up to now is        5.6 secs

     Computing kpt #:     6
     total cpu time spent up to now is        6.4 secs

     Computing kpt #:     7
     total cpu time spent up to now is        7.2 secs

     Computing kpt #:     8
     total cpu time spent up to now is        8.0 secs

     Computing kpt #:     9
     total cpu time spent up to now is        8.9 secs

     Computing kpt #:    10
     total cpu time spent up to now is        9.7 secs

     Computing kpt #:    11
     total cpu time spent up to now is       10.5 secs

     Computing kpt #:    12
     total cpu time spent up to now is       11.3 secs

     Computing kpt #:    13
     total cpu time spent up to now is       12.1 secs

     Computing kpt #:    14
     total cpu time spent up to now is       13.0 secs

     Computing kpt #:    15
     total cpu time spent up to now is       13.9 secs

     Computing kpt #:    16
     total cpu time spent up to now is       14.9 secs

     Computing kpt #:    17
     total cpu time spent up to now is       16.0 secs

     Computing kpt #:    18
     total cpu time spent up to now is       17.0 secs

     Computing kpt #:    19
     total cpu time spent up to now is       18.1 secs

     Computing kpt #:    20
     total cpu time spent up to now is       19.1 secs

     Computing kpt #:    21
     total cpu time spent up to now is       20.1 secs

     Computing kpt #:    22
     total cpu time spent up to now is       21.2 secs

     Computing kpt #:    23
     total cpu time spent up to now is       22.1 secs

     Computing kpt #:    24
     total cpu time spent up to now is       23.0 secs

     Computing kpt #:    25
     total cpu time spent up to now is       23.8 secs

     Computing kpt #:    26
     total cpu time spent up to now is       24.6 secs

     Computing kpt #:    27
     total cpu time spent up to now is       25.5 secs

     Computing kpt #:    28
     total cpu time spent up to now is       26.3 secs

     Computing kpt #:    29
     total cpu time spent up to now is       27.2 secs

     Computing kpt #:    30
     total cpu time spent up to now is       28.1 secs

     Computing kpt #:    31
     total cpu time spent up to now is       28.9 secs

     Computing kpt #:    32
     total cpu time spent up to now is       29.7 secs

     Computing kpt #:    33
     total cpu time spent up to now is       30.5 secs

     Computing kpt #:    34
     total cpu time spent up to now is       31.4 secs

     Computing kpt #:    35
     total cpu time spent up to now is       32.3 secs

     Computing kpt #:    36
     total cpu time spent up to now is       33.1 secs

     Computing kpt #:    37
     total cpu time spent up to now is       34.0 secs

     Computing kpt #:    38
     total cpu time spent up to now is       34.9 secs

     Computing kpt #:    39
     total cpu time spent up to now is       35.9 secs

     Computing kpt #:    40
     total cpu time spent up to now is       37.1 secs

     Computing kpt #:    41
     total cpu time spent up to now is       38.0 secs

     Computing kpt #:    42
     total cpu time spent up to now is       38.9 secs

     Computing kpt #:    43
     total cpu time spent up to now is       39.7 secs

     Computing kpt #:    44
     total cpu time spent up to now is       40.5 secs

     Computing kpt #:    45
     total cpu time spent up to now is       41.3 secs

     Computing kpt #:    46
     total cpu time spent up to now is       42.1 secs

     Computing kpt #:    47
     total cpu time spent up to now is       42.9 secs

     Computing kpt #:    48
     total cpu time spent up to now is       43.8 secs

     Computing kpt #:    49
     total cpu time spent up to now is       44.7 secs

     Computing kpt #:    50
     total cpu time spent up to now is       45.6 secs

     ethr =  4.55E-10,  avg # of iterations = 19.3

     total cpu time spent up to now is       45.6 secs

     End of band structure calculation

          k = 0.0000 0.0000 0.0000 (  1911 PWs)   bands (ev):

   -33.1815 -33.1051 -13.4644 -13.0037 -13.0037 -12.9095 -12.9095 -12.8585
     4.8545   7.6745  10.4511  11.2279  11.2279  11.6373  11.8545

          k = 0.0833 0.0481 0.0000 (  1872 PWs)   bands (ev):

   -33.1781 -33.1041 -13.4521 -13.0273 -13.0120 -12.9346 -12.9124 -12.8646
     4.9993   7.8090  10.2955  10.8833  11.3638  11.6926  11.8922

          k = 0.1667 0.0962 0.0000 (  1880 PWs)   bands (ev):

   -33.1687 -33.1014 -13.4170 -13.0923 -13.0340 -13.0016 -12.9209 -12.8830
     5.4149   8.1671   9.9104  10.3361  11.3384  11.6993  11.7626

          k = 0.2500 0.1443 0.0000 (  1888 PWs)   bands (ev):

   -33.1553 -33.0984 -13.3638 -13.1817 -13.0895 -13.0628 -12.9336 -12.9131
     6.0438   8.5657   9.4570   9.8560  11.0521  11.3845  11.4409

          k = 0.3333 0.1925 0.0000 (  1894 PWs)   bands (ev):

   -33.1406 -33.0966 -13.3007 -13.2714 -13.1738 -13.0904 -12.9531 -12.9471
     6.7836   8.6628   9.0629   9.5834  11.1186  11.1434  11.1633

          k = 0.4167 0.2406 0.0000 (  1912 PWs)   bands (ev):

   -33.1282 -33.0969 -13.3372 -13.2415 -13.2336 -13.1101 -12.9954 -12.9575
     7.4730   8.4804   8.8018   9.4250  10.9840  10.9931  11.4505

          k = 0.5000 0.2887 0.0000 (  1906 PWs)   bands (ev):

   -33.1228 -33.0978 -13.3612 -13.2551 -13.2134 -13.1173 -13.0172 -12.9613
     7.8303   8.3204   8.7110   9.3550  10.9224  10.9426  11.6108

          k = 0.4444 0.3849 0.0000 (  1901 PWs)   bands (ev):

   -33.1204 -33.0984 -13.3493 -13.2440 -13.2004 -13.1388 -13.0276 -12.9892
     7.9960   8.4872   8.7380   9.2733  10.8023  10.8880  11.6458

          k = 0.3889 0.4811 0.0000 (  1895 PWs)   bands (ev):

   -33.1140 -33.1007 -13.3195 -13.2166 -13.1864 -13.1636 -13.0586 -13.0553
     8.4009   8.7857   8.8492   9.0767  10.6052  10.7473  11.7562

          k = 0.3333 0.5774 0.0000 (  1905 PWs)   bands (ev):

   -33.1062 -33.1062 -13.3006 -13.2053 -13.2053 -13.1094 -13.1094 -13.0985
     8.7989   8.8109   8.8109   9.0311  10.5945  10.5945  11.8678

          k = 0.2917 0.5052 0.0000 (  1909 PWs)   bands (ev):

   -33.1133 -33.1011 -13.3021 -13.2276 -13.1763 -13.1589 -13.0782 -13.0627
     8.4419   8.8098   9.0086   9.0109  10.5342  10.7529  11.7339

          k = 0.2500 0.4330 0.0000 (  1907 PWs)   bands (ev):

   -33.1230 -33.0977 -13.2867 -13.2399 -13.2154 -13.1340 -13.0403 -13.0151
     7.8360   8.8788   9.0645   9.1080  10.5624  11.0009  11.3861

          k = 0.2083 0.3608 0.0000 (  1909 PWs)   bands (ev):

   -33.1350 -33.0965 -13.2753 -13.2427 -13.2253 -13.0909 -13.0013 -12.9704
     7.1192   9.0423   9.0746   9.2511  10.7012  11.0566  11.2769

          k = 0.1667 0.2887 0.0000 (  1891 PWs)   bands (ev):

   -33.1482 -33.0973 -13.3341 -13.1843 -13.1741 -13.0515 -12.9669 -12.9313
     6.4071   8.8422   9.3084   9.5668  10.9556  10.9642  11.5348

          k = 0.1250 0.2165 0.0000 (  1889 PWs)   bands (ev):

   -33.1610 -33.0996 -13.3867 -13.1266 -13.0961 -13.0152 -12.9397 -12.8997
     5.7755   8.4540   9.6562   9.9907  11.1351  11.3079  11.7550

          k = 0.0833 0.1443 0.0000 (  1889 PWs)   bands (ev):

   -33.1718 -33.1022 -13.4284 -13.0668 -13.0364 -12.9729 -12.9214 -12.8768
     5.2800   8.0586  10.0302  10.4777  11.4358  11.6527  11.7116

          k = 0.0417 0.0722 0.0000 (  1875 PWs)   bands (ev):

   -33.1789 -33.1044 -13.4552 -13.0211 -13.0104 -12.9281 -12.9120 -12.8631
     4.9634   7.7761  10.3330  10.9506  11.3298  11.7363  11.8341

          k = 0.0000 0.0000 0.0000 (  1911 PWs)   bands (ev):

   -33.1815 -33.1051 -13.4644 -13.0037 -13.0037 -12.9095 -12.9095 -12.8585
     4.8545   7.6745  10.4511  11.2279  11.2279  11.6373  11.8545

          k = 0.0000 0.0000 0.1075 (  1875 PWs)   bands (ev):

   -33.1764 -33.1103 -13.4260 -12.9974 -12.9974 -12.9159 -12.9159 -12.9014
     5.0376   7.5431  10.2970  11.1264  11.1264  11.4571  11.6949

          k = 0.0000 0.0000 0.2150 (  1870 PWs)   bands (ev):

   -33.1625 -33.1244 -13.3195 -13.0169 -12.9803 -12.9803 -12.9332 -12.9332
     5.5544   7.0604  10.2109  11.0034  11.0454  11.0454  11.3823

          k = 0.0000 0.0000 0.3226 (  1858 PWs)   bands (ev):

   -33.1435 -33.1435 -13.1705 -13.1705 -12.9568 -12.9568 -12.9568 -12.9568
     6.2994   6.2994  10.4999  10.4999  11.1332  11.1332  11.1332

          k = 0.0714 0.0412 0.3226 (  1874 PWs)   bands (ev):

   -33.1419 -33.1419 -13.1762 -13.1762 -12.9661 -12.9661 -12.9609 -12.9609
     6.3919   6.3919  10.4056  10.4056  11.0980  11.0980  11.2070

          k = 0.1429 0.0825 0.3226 (  1898 PWs)   bands (ev):

   -33.1373 -33.1373 -13.1971 -13.1971 -12.9870 -12.9870 -12.9726 -12.9726
     6.6523   6.6523  10.1821  10.1821  10.9840  10.9840  11.4138

          k = 0.2143 0.1237 0.3226 (  1886 PWs)   bands (ev):

   -33.1306 -33.1306 -13.2389 -13.2389 -13.0048 -13.0048 -12.9894 -12.9894
     7.0261   7.0261   9.9304   9.9304  10.8296  10.8296  11.7045

          k = 0.2857 0.1650 0.3226 (  1904 PWs)   bands (ev):

   -33.1232 -33.1232 -13.2966 -13.2966 -13.0121 -13.0121 -13.0079 -13.0079
     7.4147   7.4147   9.7324   9.7324  10.7193  10.7193  11.9830

          k = 0.3571 0.2062 0.3226 (  1888 PWs)   bands (ev):

   -33.1166 -33.1166 -13.3540 -13.3540 -13.0245 -13.0245 -13.0122 -13.0122
     7.7000   7.7000   9.6296   9.6296  10.7216  10.7216  12.1549

          k = 0.4286 0.2474 0.3226 (  1906 PWs)   bands (ev):

   -33.1120 -33.1120 -13.3954 -13.3954 -13.0360 -13.0360 -13.0101 -13.0101
     7.8353   7.8353   9.5950   9.5950  10.8157  10.8157  12.2196

          k = 0.5000 0.2887 0.3226 (  1896 PWs)   bands (ev):

   -33.1103 -33.1103 -13.4103 -13.4103 -13.0400 -13.0400 -13.0091 -13.0091
     7.8689   7.8689   9.5872   9.5872  10.8734  10.8734  12.2330

          k = 0.4583 0.3608 0.3226 (  1908 PWs)   bands (ev):

   -33.1098 -33.1098 -13.4031 -13.4031 -13.0717 -13.0717 -12.9914 -12.9914
     7.9705   7.9705   9.6326   9.6326  10.6368  10.6368  12.2789

          k = 0.4167 0.4330 0.3226 (  1894 PWs)   bands (ev):

   -33.1084 -33.1084 -13.3834 -13.3834 -13.1251 -13.1251 -12.9747 -12.9747
     8.2550   8.2550   9.7439   9.7439  10.1460  10.1460  12.2680

          k = 0.3750 0.5052 0.3226 (  1896 PWs)   bands (ev):

   -33.1069 -33.1069 -13.3585 -13.3585 -13.1772 -13.1772 -12.9656 -12.9656
     8.6662   8.6662   9.6027   9.6027   9.8685   9.8685  12.2400

          k = 0.3333 0.5774 0.3226 (  1890 PWs)   bands (ev):

   -33.1062 -33.1062 -13.3461 -13.3461 -13.2009 -13.2009 -12.9629 -12.9629
     9.1133   9.1133   9.1361   9.1361   9.8983   9.8983  12.2676

          k = 0.2963 0.5132 0.3226 (  1898 PWs)   bands (ev):

   -33.1069 -33.1069 -13.3523 -13.3523 -13.1840 -13.1840 -12.9648 -12.9648
     8.7485   8.7485   9.4757   9.4757   9.9132   9.9132  12.1999

          k = 0.2593 0.4491 0.3226 (  1912 PWs)   bands (ev):

   -33.1094 -33.1094 -13.3552 -13.3552 -13.1476 -13.1476 -12.9700 -12.9700
     8.4065   8.4065   9.6137   9.6137  10.0777  10.0777  12.0593

          k = 0.2222 0.3849 0.3226 (  1908 PWs)   bands (ev):

   -33.1137 -33.1137 -13.3412 -13.3412 -13.1063 -13.1063 -12.9770 -12.9770
     8.0650   8.0650   9.6330   9.6330  10.3071  10.3071  11.9843

          k = 0.1852 0.3208 0.3226 (  1892 PWs)   bands (ev):

   -33.1195 -33.1195 -13.3089 -13.3089 -13.0668 -13.0668 -12.9835 -12.9835
     7.6944   7.6944   9.6874   9.6874  10.4941  10.4941  11.9657

          k = 0.1481 0.2566 0.3226 (  1898 PWs)   bands (ev):

   -33.1262 -33.1262 -13.2652 -13.2652 -13.0330 -13.0330 -12.9858 -12.9858
     7.2971   7.2971   9.8158   9.8158  10.6689  10.6689  11.8546

          k = 0.1111 0.1925 0.3226 (  1900 PWs)   bands (ev):

   -33.1328 -33.1328 -13.2222 -13.2222 -13.0059 -13.0059 -12.9804 -12.9804
     6.9111   6.9111  10.0109  10.0109  10.8492  10.8492  11.6152

          k = 0.0741 0.1283 0.3226 (  1896 PWs)   bands (ev):

   -33.1384 -33.1384 -13.1911 -13.1911 -12.9831 -12.9831 -12.9693 -12.9693
     6.5882   6.5882  10.2342  10.2342  11.0076  11.0076  11.3651

          k = 0.0370 0.0642 0.3226 (  1880 PWs)   bands (ev):

   -33.1422 -33.1422 -13.1751 -13.1751 -12.9644 -12.9644 -12.9601 -12.9601
     6.3742   6.3742  10.4229  10.4229  11.1048  11.1048  11.1930

          k = 0.0000 0.0000 0.3226 (  1858 PWs)   bands (ev):

   -33.1435 -33.1435 -13.1705 -13.1705 -12.9568 -12.9568 -12.9568 -12.9568
     6.2994   6.2994  10.4999  10.4999  11.1332  11.1332  11.1332

          k = 0.5000 0.2887 0.3226 (  1896 PWs)   bands (ev):

   -33.1103 -33.1103 -13.4103 -13.4103 -13.0400 -13.0400 -13.0091 -13.0091
     7.8689   7.8689   9.5872   9.5872  10.8734  10.8734  12.2330

          k = 0.5000 0.2887 0.2150 (  1886 PWs)   bands (ev):

   -33.1166 -33.1041 -13.4216 -13.3599 -13.0788 -13.0745 -13.0009 -12.9849
     7.7080   8.1480   9.3303   9.4694  11.0091  11.0190  11.5179

          k = 0.5000 0.2887 0.1075 (  1898 PWs)   bands (ev):

   -33.1212 -33.0995 -13.3927 -13.2920 -13.1607 -13.1070 -12.9995 -12.9720
     7.7400   8.3131   8.9889   9.2711  11.0077  11.0731  11.4181

          k = 0.5000 0.2887 0.0000 (  1906 PWs)   bands (ev):

   -33.1228 -33.0978 -13.3612 -13.2551 -13.2134 -13.1173 -13.0172 -12.9613
     7.8303   8.3204   8.7110   9.3550  10.9224  10.9426  11.6108

          k = 0.3333 0.5774 0.0000 (  1905 PWs)   bands (ev):

   -33.1062 -33.1062 -13.3006 -13.2053 -13.2053 -13.1094 -13.1094 -13.0985
     8.7989   8.8109   8.8109   9.0311  10.5945  10.5945  11.8678

          k = 0.3333 0.5774 0.0806 (  1905 PWs)   bands (ev):

   -33.1062 -33.1062 -13.2931 -13.2426 -13.2426 -13.1064 -13.0713 -13.0713
     8.8378   8.8451   8.8451   9.0462  10.4944  10.4944  11.8616

          k = 0.3333 0.5774 0.1613 (  1899 PWs)   bands (ev):

   -33.1062 -33.1062 -13.2955 -13.2955 -13.2716 -13.1288 -13.0163 -13.0163
     8.9365   8.9405   8.9405   9.0831  10.2590  10.2590  11.8741

          k = 0.3333 0.5774 0.2419 (  1902 PWs)   bands (ev):

   -33.1062 -33.1062 -13.3328 -13.3328 -13.2393 -13.1620 -12.9769 -12.9769
     9.0466   9.0660   9.0660   9.1174  10.0134  10.0134  11.9821

          k = 0.3333 0.5774 0.3226 (  1890 PWs)   bands (ev):

   -33.1062 -33.1062 -13.3461 -13.3461 -13.2009 -13.2009 -12.9629 -12.9629
     9.1133   9.1133   9.1361   9.1361   9.8983   9.8983  12.2676

     Writing output data file pwscf.save

     init_run     :      0.73s CPU      0.65s WALL (       1 calls)
     electrons    :     92.55s CPU     44.83s WALL (       1 calls)

     Called by init_run:
     wfcinit      :      0.00s CPU      0.00s WALL (       1 calls)
     wfcinit:atom :      0.08s CPU      0.08s WALL (      50 calls)
     wfcinit:wfcr :      9.52s CPU      4.43s WALL (      50 calls)
     potinit      :      0.05s CPU      0.05s WALL (       1 calls)

     Called by electrons:
     c_bands      :     92.55s CPU     44.82s WALL (       1 calls)
     v_of_rho     :      0.02s CPU      0.04s WALL (       1 calls)
     v_h          :      0.00s CPU      0.00s WALL (       1 calls)
     v_xc         :      0.02s CPU      0.04s WALL (       1 calls)
     newd         :      0.05s CPU      0.13s WALL (       1 calls)

     Called by c_bands:
     init_us_2    :      0.23s CPU      0.09s WALL (      50 calls)
     cegterg      :     81.30s CPU     39.36s WALL (      66 calls)

     Called by sum_band:

     Called by *egterg:
     h_psi        :     74.47s CPU     35.81s WALL (    1081 calls)
     s_psi        :      2.11s CPU      0.78s WALL (    1081 calls)
     g_psi        :      0.50s CPU      0.20s WALL (     965 calls)
     cdiaghg      :      4.23s CPU      2.50s WALL (    1015 calls)
     cegterg:over :      3.48s CPU      1.70s WALL (     965 calls)
     cegterg:upda :      3.19s CPU      1.32s WALL (     965 calls)
     cegterg:last :      1.83s CPU      0.94s WALL (     217 calls)

     Called by h_psi:
     h_psi:pot    :     74.30s CPU     35.65s WALL (    1081 calls)
     h_psi:calbec :      1.52s CPU      0.85s WALL (    1081 calls)
     vloc_psi     :     70.77s CPU     33.91s WALL (    1081 calls)
     add_vuspsi   :      1.91s CPU      0.86s WALL (    1081 calls)

     General routines
     calbec       :      1.52s CPU      0.84s WALL (    1081 calls)
     fft          :      0.00s CPU      0.01s WALL (      13 calls)
     ffts         :      0.02s CPU      0.00s WALL (       1 calls)
     fftw         :     65.36s CPU     31.65s WALL (   20950 calls)
     interpolate  :      0.02s CPU      0.00s WALL (       1 calls)
     davcio       :      0.00s CPU      0.01s WALL (      50 calls)

     Parallel routines
     fft_scatter  :      2.17s CPU      1.17s WALL (   20964 calls)

     PWSCF        :  1m33.67s CPU     0m45.88s WALL


   This run was terminated on:  15: 7:19  26Feb2021            

=------------------------------------------------------------------------------=
   JOB DONE.
=------------------------------------------------------------------------------=
