element =  Mo
struct =  bcc
nbands =  -4
path =  GHNGP
kpts =  (8,8,8)

  ___ ___ ___ _ _ _  
 |   |   |_  | | | | 
 | | | | | . | | | | 
 |__ |  _|___|_____|  1.3.1b1
 |___|_|             

User:   inukai@DESKTOP-12SE80T
Date:   Wed Feb  3 00:40:02 2021
Arch:   x86_64
Pid:    4490
Python: 3.6.9
gpaw:   /usr/lib/python3/dist-packages/gpaw
_gpaw:  /usr/lib/python3/dist-packages/_gpaw.cpython-36m-x86_64-linux-gnu.so
ase:    /home/inukai/hotcent/ase-3.19.3/ase (version 3.19.3)
numpy:  /home/inukai/.local/lib/python3.6/site-packages/numpy (version 1.19.5)
scipy:  /home/inukai/.local/lib/python3.6/site-packages/scipy (version 1.5.4)
units:  Angstrom and eV
cores:  1

Input parameters:
  kpts: [8 8 8]
  maxiter: 200
  mixer: {backend: pulay,
          beta: 0.05,
          method: separate,
          nmaxold: 8,
          weight: 100}
  mode: {ecut: 400.0,
         name: pw}
  occupations: {name: fermi-dirac,
                width: 0.02}
  spinpol: False
  xc: PBE

System changes: positions, numbers, cell, pbc, initial_charges, initial_magmoms 

Initialize ...

Mo-setup:
  name: Molybdenum
  id: 296a29d4664fe6c6f68623909fe0870f
  Z: 42
  valence: 14
  core: 28
  charge: 0.0
  file: /usr/share/gpaw-setups/Mo.PBE.gz
  cutoffs: 1.20(comp), 2.16(filt), 1.42(core), lmax=2
  valence states:
                energy  radius
    4s(2.00)   -64.307   1.238
    5s(1.00)    -4.084   1.238
    4p(6.00)   -38.491   1.296
    5p(0.00)    -1.044   1.296
    4d(5.00)    -3.754   1.296
    *d          23.458   1.296

  Using partial waves for Mo as LCAO basis

Reference energy: -110134.072632

Spin-paired calculation

Occupation numbers:
  Fermi-Dirac: width=0.0200 eV

Convergence criteria:
  Maximum total energy change: 0.0005 eV / electron
  Maximum integral of absolute density change: 0.0001 electrons
  Maximum integral of absolute eigenstate change: 4e-08 eV^2
  Maximum number of iterations: 200

Symmetries present (total): 48

  ( 1  1  1)  ( 1  1  1)  ( 1  1  1)  ( 1  1  1)  ( 1  1  1)  ( 1  1  1)
  ( 0  0 -1)  ( 0  0 -1)  ( 0 -1  0)  ( 0 -1  0)  (-1  0  0)  (-1  0  0)
  ( 0 -1  0)  (-1  0  0)  ( 0  0 -1)  (-1  0  0)  ( 0  0 -1)  ( 0 -1  0)

  ( 1  0  0)  ( 1  0  0)  ( 1  0  0)  ( 1  0  0)  ( 1  0  0)  ( 1  0  0)
  ( 0  1  0)  ( 0  1  0)  ( 0  0  1)  ( 0  0  1)  (-1 -1 -1)  (-1 -1 -1)
  ( 0  0  1)  (-1 -1 -1)  ( 0  1  0)  (-1 -1 -1)  ( 0  1  0)  ( 0  0  1)

  ( 0  1  0)  ( 0  1  0)  ( 0  1  0)  ( 0  1  0)  ( 0  1  0)  ( 0  1  0)
  ( 1  0  0)  ( 1  0  0)  ( 0  0  1)  ( 0  0  1)  (-1 -1 -1)  (-1 -1 -1)
  ( 0  0  1)  (-1 -1 -1)  ( 1  0  0)  (-1 -1 -1)  ( 1  0  0)  ( 0  0  1)

  ( 0  0  1)  ( 0  0  1)  ( 0  0  1)  ( 0  0  1)  ( 0  0  1)  ( 0  0  1)
  ( 1  0  0)  ( 1  0  0)  ( 0  1  0)  ( 0  1  0)  (-1 -1 -1)  (-1 -1 -1)
  ( 0  1  0)  (-1 -1 -1)  ( 1  0  0)  (-1 -1 -1)  ( 1  0  0)  ( 0  1  0)

  ( 0  0 -1)  ( 0  0 -1)  ( 0  0 -1)  ( 0  0 -1)  ( 0  0 -1)  ( 0  0 -1)
  ( 1  1  1)  ( 1  1  1)  ( 0 -1  0)  ( 0 -1  0)  (-1  0  0)  (-1  0  0)
  ( 0 -1  0)  (-1  0  0)  ( 1  1  1)  (-1  0  0)  ( 1  1  1)  ( 0 -1  0)

  ( 0 -1  0)  ( 0 -1  0)  ( 0 -1  0)  ( 0 -1  0)  ( 0 -1  0)  ( 0 -1  0)
  ( 1  1  1)  ( 1  1  1)  ( 0  0 -1)  ( 0  0 -1)  (-1  0  0)  (-1  0  0)
  ( 0  0 -1)  (-1  0  0)  ( 1  1  1)  (-1  0  0)  ( 1  1  1)  ( 0  0 -1)

  (-1  0  0)  (-1  0  0)  (-1  0  0)  (-1  0  0)  (-1  0  0)  (-1  0  0)
  ( 1  1  1)  ( 1  1  1)  ( 0  0 -1)  ( 0  0 -1)  ( 0 -1  0)  ( 0 -1  0)
  ( 0  0 -1)  ( 0 -1  0)  ( 1  1  1)  ( 0 -1  0)  ( 1  1  1)  ( 0  0 -1)

  (-1 -1 -1)  (-1 -1 -1)  (-1 -1 -1)  (-1 -1 -1)  (-1 -1 -1)  (-1 -1 -1)
  ( 1  0  0)  ( 1  0  0)  ( 0  1  0)  ( 0  1  0)  ( 0  0  1)  ( 0  0  1)
  ( 0  1  0)  ( 0  0  1)  ( 1  0  0)  ( 0  0  1)  ( 1  0  0)  ( 0  1  0)

512 k-points: 8 x 8 x 8 Monkhorst-Pack grid
26 k-points in the irreducible part of the Brillouin zone
       k-points in crystal coordinates                weights
   0:     0.06250000    0.06250000   -0.06250000          6/512
   1:     0.18750000   -0.06250000   -0.06250000          8/512
   2:     0.18750000    0.06250000   -0.06250000         24/512
   3:     0.18750000    0.18750000   -0.18750000          6/512
   4:     0.31250000   -0.06250000   -0.06250000         24/512
   5:     0.31250000    0.06250000   -0.18750000         24/512
   6:     0.31250000    0.06250000   -0.06250000         24/512
   7:     0.31250000    0.18750000   -0.18750000         24/512
   8:     0.31250000    0.31250000   -0.31250000          6/512
   9:     0.31250000    0.31250000    0.18750000         12/512
          ...
  25:     0.43750000    0.43750000    0.43750000          8/512

Wave functions: Plane wave expansion
  Cutoff energy: 400.000 eV
  Number of coefficients (min, max): 274, 301
  Using FFTW library
  Eigensolver: None  MatrixOperator buffer_size: default value or 
                              see value of nblock in input file
Diagonalizer layout: Serial LAPACKOrthonormalizer layout: Serial LAPACK 

Davidson(niter=1, smin=None, normalize=True) 

Densities:
  Coarse grid: 10*10*10 grid
  Fine grid: 20*20*20 grid
  Total Charge: 0.000000 

Density mixing:
  Method: separate
  Backend: pulay
  Linear mixing parameter: 0.05
  Mixing with 8 old densities
  Damping of long wave oscillations: 100 

Hamiltonian:
  XC and Coulomb potentials evaluated on a 20*20*20 grid
  Using the PBE Exchange-Correlation functional
 

Memory estimate:
  Process memory now: 923.40 MiB
  Calculator: 3.38 MiB
    Density: 0.47 MiB
      Arrays: 0.20 MiB
      Localized functions: 0.15 MiB
      Mixer: 0.12 MiB
    Hamiltonian: 0.13 MiB
      Arrays: 0.13 MiB
      XC: 0.00 MiB
      Poisson: 0.00 MiB
      vbar: 0.00 MiB
    Wavefunctions: 2.78 MiB
      Arrays psit_nG: 1.55 MiB
      Eigensolver: 0.11 MiB
      Projections: 0.09 MiB
      Projectors: 0.84 MiB
      Overlap op: 0.06 MiB
      PW-descriptor: 0.12 MiB

Total number of cores used: 1

Number of atoms: 1
Number of atomic orbitals: 13
Number of bands in calculation: 13
Bands to converge: occupied states only
Number of valence electrons: 14

... initialized

Initializing position-dependent things.

Density initialized from atomic densities
Creating initial wave functions:
  13 bands from LCAO basis set

                
                
                
       Mo       
                
                
                
                

Positions:
   0 Mo     0.000000    0.000000    0.000000

Unit cell:
           periodic     x           y           z      points  spacing
  1. axis:    yes   -1.575000    1.575000    1.575000    10     0.2227
  2. axis:    yes    1.575000   -1.575000    1.575000    10     0.2227
  3. axis:    yes    1.575000    1.575000   -1.575000    10     0.2227

  Lengths:   2.727980   2.727980   2.727980
  Angles:  109.471221 109.471221 109.471221

Effective grid spacing dv^(1/3) = 0.2500

                     log10-error:    total        iterations:
           time      wfs    density  energy       fermi  poisson
iter:   1  00:40:04  +2.24   +inf   -11.967639    3             
iter:   2  00:40:05  +0.34   +inf   -12.083939    4             
iter:   3  00:40:05  -0.04   +inf   -12.109148    3             
iter:   4  00:40:06  -0.57  -1.16   -11.946055    5             
iter:   5  00:40:06  +0.43  -1.20   -11.201102    33            
iter:   6  00:40:07  -0.46  -1.75   -11.281435    28            
iter:   7  00:40:08  -0.24  -1.82   -11.211035    5             
iter:   8  00:40:08  -1.36  -2.42   -11.214195    4             
iter:   9  00:40:09  -2.11  -2.52   -11.213871    3             
iter:  10  00:40:10  -2.46  -2.62   -11.212804    4             
iter:  11  00:40:10  -2.53  -2.85   -11.212311    4             
iter:  12  00:40:11  -3.86  -3.41   -11.212321    2             
iter:  13  00:40:12  -4.41  -3.57   -11.212317    2             
iter:  14  00:40:12  -4.82  -3.76   -11.212313    3             
iter:  15  00:40:13  -5.18  -3.74   -11.212312    2             
iter:  16  00:40:13  -6.01  -4.70   -11.212312    2             
iter:  17  00:40:14  -6.04  -4.63   -11.212312    2             
iter:  18  00:40:15  -7.29  -5.10   -11.212312    2             
iter:  19  00:40:15  -7.24  -5.24   -11.212312    2             
iter:  20  00:40:16  -8.27  -5.81   -11.212312    2             

Converged after 20 iterations.

Dipole moment: (0.000000, 0.000000, 0.000000) |e|*Ang

Energy contributions relative to reference atoms: (reference = -110134.072632)

Kinetic:        -11.842948
Potential:       +6.440081
External:        +0.000000
XC:              -5.565420
Entropy (-ST):   -0.001309
Local:           -0.243370
--------------------------
Free energy:    -11.212966
Extrapolated:   -11.212312

Fermi level: 13.62303

Warning: Showing only first 2 kpts
 Kpt  Band  Eigenvalues  Occupancy
  0     5     12.18175    0.02344
  0     6     12.18212    0.02344
  0     7     12.34842    0.02344
  0     8     14.72383    0.00000

  1     5     11.75615    0.03125
  1     6     11.75646    0.03125
  1     7     13.35017    0.03125
  1     8     14.94796    0.00000


Input parameters:
  convergence: {bands: all}
  eigensolver: {name: cg,
                niter: 5}
  fixdensity: True
  kpts: {npoints: 50,
         path: GHNGP}
  nbands: -4
  symmetry: off

Initialize ...

Mo-setup:
  name: Molybdenum
  id: 296a29d4664fe6c6f68623909fe0870f
  Z: 42
  valence: 14
  core: 28
  charge: 0.0
  file: /usr/share/gpaw-setups/Mo.PBE.gz
  cutoffs: 1.20(comp), 2.16(filt), 1.42(core), lmax=2
  valence states:
                energy  radius
    4s(2.00)   -64.307   1.238
    5s(1.00)    -4.084   1.238
    4p(6.00)   -38.491   1.296
    5p(0.00)    -1.044   1.296
    4d(5.00)    -3.754   1.296
    *d          23.458   1.296

  Using partial waves for Mo as LCAO basis

Reference energy: -110134.072632

Spin-paired calculation

Occupation numbers:
  Fixed Fermi level
  Fermi-Dirac: width=0.0200 eV

Convergence criteria:
  Maximum total energy change: 0.0005 eV / electron
  Maximum integral of absolute density change: 0.0001 electrons
  Maximum integral of absolute eigenstate change: 4e-08 eV^2
  Maximum number of iterations: 200

Symmetries present (total): 1

  ( 1  0  0)
  ( 0  1  0)
  ( 0  0  1)

50 k-points
50 k-points in the irreducible part of the Brillouin zone
       k-points in crystal coordinates                weights
   0:     0.00000000    0.00000000    0.00000000          1/50
   1:     0.03571429   -0.03571429    0.03571429          1/50
   2:     0.07142857   -0.07142857    0.07142857          1/50
   3:     0.10714286   -0.10714286    0.10714286          1/50
   4:     0.14285714   -0.14285714    0.14285714          1/50
   5:     0.17857143   -0.17857143    0.17857143          1/50
   6:     0.21428571   -0.21428571    0.21428571          1/50
   7:     0.25000000   -0.25000000    0.25000000          1/50
   8:     0.28571429   -0.28571429    0.28571429          1/50
   9:     0.32142857   -0.32142857    0.32142857          1/50
          ...
  49:     0.25000000    0.25000000    0.25000000          1/50

Wave functions: Plane wave expansion
  Cutoff energy: 400.000 eV
  Number of coefficients (min, max): 266, 321
  Using FFTW library
  Eigensolver: None  MatrixOperator buffer_size: default value or 
                              see value of nblock in input file
Diagonalizer layout: Serial LAPACKOrthonormalizer layout: Serial LAPACK 

CG(niter=5, rtol=3.0e-01) 

No density mixing

Memory estimate:
  Process memory now: 978.55 MiB
  Calculator: 5.42 MiB
    Density: 0.47 MiB
      Arrays: 0.20 MiB
      Localized functions: 0.15 MiB
      Mixer: 0.12 MiB
    Hamiltonian: 0.13 MiB
      Arrays: 0.13 MiB
      XC: 0.00 MiB
      Poisson: 0.00 MiB
      vbar: 0.00 MiB
    Wavefunctions: 4.82 MiB
      Arrays psit_nG: 2.69 MiB
      Eigensolver: 0.08 MiB
      Projections: 0.15 MiB
      Projectors: 1.64 MiB
      Overlap op: 0.06 MiB
      PW-descriptor: 0.20 MiB

Total number of cores used: 1

Number of atoms: 1
Number of atomic orbitals: 13
Number of bands in calculation: 11
Bands to converge: all
Number of valence electrons: 14

... initialized

Initializing position-dependent things.

Creating initial wave functions:
  11 bands from LCAO basis set

                
                
                
       Mo       
                
                
                
                

Positions:
   0 Mo     0.000000    0.000000    0.000000

Unit cell:
           periodic     x           y           z      points  spacing
  1. axis:    yes   -1.575000    1.575000    1.575000    10     0.2227
  2. axis:    yes    1.575000   -1.575000    1.575000    10     0.2227
  3. axis:    yes    1.575000    1.575000   -1.575000    10     0.2227

  Lengths:   2.727980   2.727980   2.727980
  Angles:  109.471221 109.471221 109.471221

Effective grid spacing dv^(1/3) = 0.2500

                     log10-error:    total        iterations:
           time      wfs    density  energy       fermi  poisson
iter:   1  00:40:20  +1.71          -11.925980    28            
iter:   2  00:40:22  +0.93          -11.978004    29            
iter:   3  00:40:25  +0.61          -11.986713    27            
iter:   4  00:40:27  +0.76          -11.987583    23            
iter:   5  00:40:29  +0.16          -11.987682    29            
iter:   6  00:40:31  +0.73          -11.987695    28            
iter:   7  00:40:34  +0.27          -11.987697    29            
iter:   8  00:40:36  -0.35          -11.987698    25            
iter:   9  00:40:37  -0.29          -11.987698    28            
iter:  10  00:40:38  -0.73          -11.987698    28            
iter:  11  00:40:39  -1.17          -11.987698    28            
iter:  12  00:40:39  -1.81          -11.987698    28            
iter:  13  00:40:40  -2.69          -11.987698    28            
iter:  14  00:40:40  -3.86          -11.987698    28            
iter:  15  00:40:41  -4.57          -11.987698    28            
iter:  16  00:40:41  -0.43          -11.987698    28            
iter:  17  00:40:42  -1.03          -11.987698    28            
iter:  18  00:40:42  -1.57          -11.987698    28            
iter:  19  00:40:43  -0.79          -11.987698    28            
iter:  20  00:40:43  -0.86          -11.987698    28            
iter:  21  00:40:44  -1.47          -11.987698    28            
iter:  22  00:40:44  -2.04          -11.987698    28            
iter:  23  00:40:44  -3.34          -11.987698    28            
iter:  24  00:40:45  -4.12          -11.987698    28            
iter:  25  00:40:45  -6.21          -11.987698    28            
iter:  26  00:40:46  -6.78          -11.987698    28            
iter:  27  00:40:46  -7.39          -11.987698    28            
iter:  28  00:40:46  -7.94          -11.987698    28            

Converged after 28 iterations.

Dipole moment: (0.000000, 0.000000, -0.000000) |e|*Ang

Energy contributions relative to reference atoms: (reference = -110134.072632)

Kinetic:        -12.618757
Potential:       +6.440079
External:        +0.000000
XC:              -5.565423
Entropy (-ST):   -0.000455
Local:           -0.243369
--------------------------
Free energy:    -11.987925
Extrapolated:   -11.987698

Fixed Fermi level: 13.62303

Warning: Showing only first 2 kpts
 Kpt  Band  Eigenvalues  Occupancy
  0     5     12.19796    0.04000
  0     6     12.19796    0.04000
  0     7     12.19851    0.04000
  0     8     15.16607    0.00000

  1     5     12.19352    0.04000
  1     6     12.19389    0.04000
  1     7     12.24769    0.04000
  1     8     15.01797    0.00000


Timing:                              incl.     excl.
-----------------------------------------------------------
Hamiltonian:                         0.438     0.001   0.0% |
 Atomic:                             0.412     0.003   0.0% |
  XC Correction:                     0.409     0.409   0.9% |
 Calculate atomic Hamiltonians:      0.003     0.003   0.0% |
 Communicate:                        0.000     0.000   0.0% |
 Initialize Hamiltonian:             0.000     0.000   0.0% |
 Poisson:                            0.000     0.000   0.0% |
 XC 3D grid:                         0.023     0.023   0.0% |
LCAO initialization:                 2.592     0.411   0.9% |
 LCAO eigensolver:                   0.742     0.007   0.0% |
  Calculate projections:             0.002     0.002   0.0% |
  DenseAtomicCorrection:             0.013     0.013   0.0% |
  Distribute overlap matrix:         0.003     0.003   0.0% |
  Orbital Layouts:                   0.046     0.046   0.1% |
  Potential matrix:                  0.271     0.271   0.6% |
  Sum over cells:                    0.399     0.399   0.9% |
 LCAO to grid:                       0.444     0.444   1.0% |
 Set positions (LCAO WFS):           0.995     0.000   0.0% |
  Basic WFS set positions:           0.002     0.002   0.0% |
  Basis functions set positions:     0.000     0.000   0.0% |
  TCI: Calculate S, T, P:            0.992     0.992   2.2% ||
PWDescriptor:                        0.012     0.012   0.0% |
Redistribute:                        0.000     0.000   0.0% |
SCF-cycle:                          40.424     6.604  14.5% |-----|
 CG:                                18.115    15.925  34.8% |-------------|
  CG: orthonormalize:                2.190     1.251   2.7% ||
   CG: overlap:                      0.583     0.583   1.3% ||
   CG: overlap2:                     0.356     0.356   0.8% |
 Davidson:                           5.161     2.818   6.2% |-|
  calc. matrices:                    1.150     1.150   2.5% ||
  diagonalize:                       1.011     1.011   2.2% ||
  rotate_psi:                        0.182     0.182   0.4% |
 Density:                            0.947     0.001   0.0% |
  Atomic density matrices:           0.058     0.058   0.1% |
  Mix:                               0.055     0.055   0.1% |
  Multipole moments:                 0.004     0.004   0.0% |
  Pseudo density:                    0.829     0.706   1.5% ||
   Symmetrize density:               0.123     0.123   0.3% |
 Hamiltonian:                        3.834     0.010   0.0% |
  Atomic:                            3.552     0.025   0.1% |
   XC Correction:                    3.527     3.527   7.7% |--|
  Calculate atomic Hamiltonians:     0.030     0.030   0.1% |
  Communicate:                       0.000     0.000   0.0% |
  Poisson:                           0.003     0.003   0.0% |
  XC 3D grid:                        0.238     0.238   0.5% |
 Orthonormalize:                     0.081     0.005   0.0% |
  Band Layouts:                      0.006     0.001   0.0% |
   Inverse Cholesky:                 0.004     0.004   0.0% |
  calc_s_matrix:                     0.013     0.013   0.0% |
  projections:                       0.045     0.045   0.1% |
  rotate_psi:                        0.012     0.012   0.0% |
 Residuals:                          1.172     1.172   2.6% ||
 Subspace diag:                      4.511     0.227   0.5% |
  Band Layouts:                      0.740     0.066   0.1% |
   Diagonalize:                      0.627     0.627   1.4% ||
   Distribute results:               0.047     0.047   0.1% |
  calc_h_matrix:                     3.000     3.000   6.6% |--|
  rotate_psi:                        0.544     0.544   1.2% |
Set symmetry:                        0.092     0.092   0.2% |
Other:                               2.141     2.141   4.7% |-|
-----------------------------------------------------------
Total:                                        45.699 100.0%

Date: Wed Feb  3 00:40:47 2021
element =  Mo
struct =  bcc
kpts =  (8,8,8)
element =  Mo
configuration =  [Kr] 4d4 5s2 5p0
valence =  ['4d', '5s', '5p']
occupations =  {'4d': 4, '5s': 2}
nls =  4d
rNum =  600
lmax =  d
*******************************************
Starting confinement parameter optimization
Adjustable parameters and initial values:
  Mo_4d.r0 : 5.820356
  Mo_5p.r0 : 5.820356
  Mo_5s.r0 : 5.820356
  Mo_n.r0 : 8.730535
*******************************************

OPT_VAL: 5.8203564675777395   5.8203564675777395   5.8203564675777395   8.73053470136661
VCONF:
  Mo_4d : PowerConfinement(r0=5.820356, s=2.000000)
  Mo_5p : PowerConfinement(r0=5.820356, s=2.000000)
  Mo_5s : PowerConfinement(r0=5.820356, s=2.000000)
  Mo_n : PowerConfinement(r0=8.730535, s=2.000000)
RESIDUAL: 0.0

OPT_VAL: 6.02035646757774   5.8203564675777395   5.8203564675777395   8.73053470136661
VCONF:
  Mo_4d : PowerConfinement(r0=6.020356, s=2.000000)
  Mo_5p : PowerConfinement(r0=5.820356, s=2.000000)
  Mo_5s : PowerConfinement(r0=5.820356, s=2.000000)
  Mo_n : PowerConfinement(r0=8.730535, s=2.000000)
RESIDUAL: 0.0

OPT_VAL: 5.8203564675777395   6.02035646757774   5.8203564675777395   8.73053470136661
VCONF:
  Mo_4d : PowerConfinement(r0=5.820356, s=2.000000)
  Mo_5p : PowerConfinement(r0=6.020356, s=2.000000)
  Mo_5s : PowerConfinement(r0=5.820356, s=2.000000)
  Mo_n : PowerConfinement(r0=8.730535, s=2.000000)
RESIDUAL: 0.0

OPT_VAL: 5.8203564675777395   5.8203564675777395   6.02035646757774   8.73053470136661
VCONF:
  Mo_4d : PowerConfinement(r0=5.820356, s=2.000000)
  Mo_5p : PowerConfinement(r0=5.820356, s=2.000000)
  Mo_5s : PowerConfinement(r0=6.020356, s=2.000000)
  Mo_n : PowerConfinement(r0=8.730535, s=2.000000)
RESIDUAL: 0.0

OPT_VAL: 5.8203564675777395   5.8203564675777395   5.8203564675777395   8.930534701366609
VCONF:
  Mo_4d : PowerConfinement(r0=5.820356, s=2.000000)
  Mo_5p : PowerConfinement(r0=5.820356, s=2.000000)
  Mo_5s : PowerConfinement(r0=5.820356, s=2.000000)
  Mo_n : PowerConfinement(r0=8.930535, s=2.000000)
RESIDUAL: 0.0

OPT_VAL: 5.84535646757774   5.8203564675777395   5.8203564675777395   8.73053470136661
VCONF:
  Mo_4d : PowerConfinement(r0=5.845356, s=2.000000)
  Mo_5p : PowerConfinement(r0=5.820356, s=2.000000)
  Mo_5s : PowerConfinement(r0=5.820356, s=2.000000)
  Mo_n : PowerConfinement(r0=8.730535, s=2.000000)
RESIDUAL: 0.0

OPT_VAL: 5.8203564675777395   5.84535646757774   5.8203564675777395   8.73053470136661
VCONF:
  Mo_4d : PowerConfinement(r0=5.820356, s=2.000000)
  Mo_5p : PowerConfinement(r0=5.845356, s=2.000000)
  Mo_5s : PowerConfinement(r0=5.820356, s=2.000000)
  Mo_n : PowerConfinement(r0=8.730535, s=2.000000)
RESIDUAL: 0.0

OPT_VAL: 5.8203564675777395   5.8203564675777395   5.84535646757774   8.73053470136661
VCONF:
  Mo_4d : PowerConfinement(r0=5.820356, s=2.000000)
  Mo_5p : PowerConfinement(r0=5.820356, s=2.000000)
  Mo_5s : PowerConfinement(r0=5.845356, s=2.000000)
  Mo_n : PowerConfinement(r0=8.730535, s=2.000000)
RESIDUAL: 0.0

OPT_VAL: 5.8203564675777395   5.8203564675777395   5.8203564675777395   8.75553470136661
VCONF:
  Mo_4d : PowerConfinement(r0=5.820356, s=2.000000)
  Mo_5p : PowerConfinement(r0=5.820356, s=2.000000)
  Mo_5s : PowerConfinement(r0=5.820356, s=2.000000)
  Mo_n : PowerConfinement(r0=8.755535, s=2.000000)
RESIDUAL: 0.0

OPT_VAL: 5.825356467577739   5.8203564675777395   5.8203564675777395   8.73053470136661
VCONF:
  Mo_4d : PowerConfinement(r0=5.825356, s=2.000000)
  Mo_5p : PowerConfinement(r0=5.820356, s=2.000000)
  Mo_5s : PowerConfinement(r0=5.820356, s=2.000000)
  Mo_n : PowerConfinement(r0=8.730535, s=2.000000)
RESIDUAL: 0.0

OPT_VAL: 5.8203564675777395   5.825356467577739   5.8203564675777395   8.73053470136661
VCONF:
  Mo_4d : PowerConfinement(r0=5.820356, s=2.000000)
  Mo_5p : PowerConfinement(r0=5.825356, s=2.000000)
  Mo_5s : PowerConfinement(r0=5.820356, s=2.000000)
  Mo_n : PowerConfinement(r0=8.730535, s=2.000000)
RESIDUAL: 0.0

OPT_VAL: 5.8203564675777395   5.8203564675777395   5.825356467577739   8.73053470136661
VCONF:
  Mo_4d : PowerConfinement(r0=5.820356, s=2.000000)
  Mo_5p : PowerConfinement(r0=5.820356, s=2.000000)
  Mo_5s : PowerConfinement(r0=5.825356, s=2.000000)
  Mo_n : PowerConfinement(r0=8.730535, s=2.000000)
RESIDUAL: 0.0

OPT_VAL: 5.8203564675777395   5.8203564675777395   5.8203564675777395   8.73553470136661
VCONF:
  Mo_4d : PowerConfinement(r0=5.820356, s=2.000000)
  Mo_5p : PowerConfinement(r0=5.820356, s=2.000000)
  Mo_5s : PowerConfinement(r0=5.820356, s=2.000000)
  Mo_n : PowerConfinement(r0=8.735535, s=2.000000)
RESIDUAL: 0.0

*******************************************
Optimization finished after 13 iterations
Adjustable parameters and final values:
  Mo_4d.r0 : 5.820356
  Mo_5p.r0 : 5.820356
  Mo_5s.r0 : 5.820356
  Mo_n.r0 : 8.730535
*******************************************

VCONF:
  Mo_4d : PowerConfinement(r0=5.820356, s=2.000000)
  Mo_5p : PowerConfinement(r0=5.820356, s=2.000000)
  Mo_5s : PowerConfinement(r0=5.820356, s=2.000000)
  Mo_n : PowerConfinement(r0=8.730535, s=2.000000)
