
     Program PWSCF v.6.0 (svn rev. 13079) starts on 25Feb2021 at 11:31:35 

     This program is part of the open-source Quantum ESPRESSO suite
     for quantum simulation of materials; please cite
         "P. Giannozzi et al., J. Phys.:Condens. Matter 21 395502 (2009);
          URL http://www.quantum-espresso.org", 
     in publications or presentations arising from this work. More details at
     http://www.quantum-espresso.org/quote

     Parallel version (MPI), running on     1 processors
     Reading input from espresso.pwi
Warning: card &IONS ignored
Warning: card / ignored
Warning: card &CELL ignored
Warning: card / ignored

     Current dimensions of program PWSCF are:
     Max number of different atomic species (ntypx) = 10
     Max number of k-points (npk) =  40000
     Max angular momentum in pseudopotentials (lmaxx) =  3
     Message from routine input:
     WARNING: "startingwfc" set to atomic+random may spoil restart

     Atomic positions and unit cell read from directory:
     ./pwscf.save/


     IMPORTANT: XC functional enforced from input :
     Exchange-correlation      = PBE ( 1  4  3  4 0 0)
     Any further DFT definition will be discarded
     Please, verify this is what you really want


     Subspace diagonalization in iterative solution of the eigenvalue problem:
     a serial algorithm will be used


     G-vector sticks info
     --------------------
     sticks:   dense  smooth     PW     G-vecs:    dense   smooth      PW
     Sum         511     409    121                14979    10695    1809



     bravais-lattice index     =            0
     lattice parameter (alat)  =       6.0641  a.u.
     unit-cell volume          =     313.6084 (a.u.)^3
     number of atoms/cell      =            2
     number of atomic types    =            1
     number of electrons       =        20.00
     number of Kohn-Sham states=           14
     kinetic-energy cutoff     =      40.0000  Ry
     charge density cutoff     =     200.0000  Ry
     Exchange-correlation      = PBE ( 1  4  3  4 0 0)

     celldm(1)=   6.064131  celldm(2)=   0.000000  celldm(3)=   0.000000
     celldm(4)=   0.000000  celldm(5)=   0.000000  celldm(6)=   0.000000

     crystal axes: (cart. coord. in units of alat)
               a(1) = (   1.000000   0.000000   0.000000 )  
               a(2) = (  -0.500000   0.866025   0.000000 )  
               a(3) = (   0.000000   0.000000   1.623870 )  

     reciprocal axes: (cart. coord. in units 2 pi/alat)
               b(1) = (  1.000000  0.577350 -0.000000 )  
               b(2) = (  0.000000  1.154701  0.000000 )  
               b(3) = (  0.000000 -0.000000  0.615813 )  


     PseudoPot. # 1 for Mg read from file:
     /home/inukai/tango/tests/1element/qe_fit_v2_Mg/../pseudo/mg_pbe_v1.4.uspp.F.UPF
     MD5 check sum: 8ffbd8f729fef71095aac5bd8316fb1f
     Pseudo is Ultrasoft, Zval = 10.0
     Generated by new atomic code, or converted to UPF format
     Using radial grid of  821 points,  7 beta functions with: 
                l(1) =   0
                l(2) =   0
                l(3) =   0
                l(4) =   1
                l(5) =   1
                l(6) =   2
                l(7) =   2
     Q(r) pseudized with  8 coefficients,  rinner =    1.200   1.200   1.200
                                                       1.200   1.200

     atomic species   valence    mass     pseudopotential
        Mg            10.00    24.30500     Mg( 1.00)

     12 Sym. Ops. (no inversion) found
          (note: 12 additional sym.ops. were found but ignored
           their fractional translations are incommensurate with FFT grid)

                                    s                        frac. trans.

      isym =  1     identity                                     

 cryst.   s( 1) = (     1          0          0      )
                  (     0          1          0      )
                  (     0          0          1      )

 cart.    s( 1) = (  1.0000000  0.0000000  0.0000000 )
                  (  0.0000000  1.0000000  0.0000000 )
                  (  0.0000000  0.0000000  1.0000000 )


      isym =  2     180 deg rotation - cart. axis [0,1,0]        

 cryst.   s( 2) = (    -1          0          0      )
                  (     1          1          0      )
                  (     0          0         -1      )

 cart.    s( 2) = ( -1.0000000  0.0000000  0.0000000 )
                  (  0.0000000  1.0000000  0.0000000 )
                  (  0.0000000  0.0000000 -1.0000000 )


      isym =  3     120 deg rotation - cryst. axis [0,0,1]       

 cryst.   s( 3) = (     0          1          0      )
                  (    -1         -1          0      )
                  (     0          0          1      )

 cart.    s( 3) = ( -0.5000000 -0.8660254  0.0000000 )
                  (  0.8660254 -0.5000000  0.0000000 )
                  (  0.0000000  0.0000000  1.0000000 )


      isym =  4     120 deg rotation - cryst. axis [0,0,-1]      

 cryst.   s( 4) = (    -1         -1          0      )
                  (     1          0          0      )
                  (     0          0          1      )

 cart.    s( 4) = ( -0.5000000  0.8660254  0.0000000 )
                  ( -0.8660254 -0.5000000  0.0000000 )
                  (  0.0000000  0.0000000  1.0000000 )


      isym =  5     180 deg rotation - cryst. axis [1,-1,0]      

 cryst.   s( 5) = (     0         -1          0      )
                  (    -1          0          0      )
                  (     0          0         -1      )

 cart.    s( 5) = (  0.5000000 -0.8660254  0.0000000 )
                  ( -0.8660254 -0.5000000  0.0000000 )
                  (  0.0000000  0.0000000 -1.0000000 )


      isym =  6     180 deg rotation - cryst. axis [2,1,0]       

 cryst.   s( 6) = (     1          1          0      )
                  (     0         -1          0      )
                  (     0          0         -1      )

 cart.    s( 6) = (  0.5000000  0.8660254  0.0000000 )
                  (  0.8660254 -0.5000000  0.0000000 )
                  (  0.0000000  0.0000000 -1.0000000 )


      isym =  7     inv. 180 deg rotation - cart. axis [0,0,1]   

 cryst.   s( 7) = (     1          0          0      )
                  (     0          1          0      )
                  (     0          0         -1      )

 cart.    s( 7) = (  1.0000000  0.0000000  0.0000000 )
                  (  0.0000000  1.0000000  0.0000000 )
                  (  0.0000000  0.0000000 -1.0000000 )


      isym =  8     inv. 180 deg rotation - cart. axis [1,0,0]   

 cryst.   s( 8) = (    -1          0          0      )
                  (     1          1          0      )
                  (     0          0          1      )

 cart.    s( 8) = ( -1.0000000  0.0000000  0.0000000 )
                  (  0.0000000  1.0000000  0.0000000 )
                  (  0.0000000  0.0000000  1.0000000 )


      isym =  9     inv.  60 deg rotation - cryst. axis [0,0,1]  

 cryst.   s( 9) = (    -1         -1          0      )
                  (     1          0          0      )
                  (     0          0         -1      )

 cart.    s( 9) = ( -0.5000000  0.8660254  0.0000000 )
                  ( -0.8660254 -0.5000000  0.0000000 )
                  (  0.0000000  0.0000000 -1.0000000 )


      isym = 10     inv.  60 deg rotation - cryst. axis [0,0,-1] 

 cryst.   s(10) = (     0          1          0      )
                  (    -1         -1          0      )
                  (     0          0         -1      )

 cart.    s(10) = ( -0.5000000 -0.8660254  0.0000000 )
                  (  0.8660254 -0.5000000  0.0000000 )
                  (  0.0000000  0.0000000 -1.0000000 )


      isym = 11     inv. 180 deg rotation - cryst. axis [0,1,0]  

 cryst.   s(11) = (     1          1          0      )
                  (     0         -1          0      )
                  (     0          0          1      )

 cart.    s(11) = (  0.5000000  0.8660254  0.0000000 )
                  (  0.8660254 -0.5000000  0.0000000 )
                  (  0.0000000  0.0000000  1.0000000 )


      isym = 12     inv. 180 deg rotation - cryst. axis [1,1,0]  

 cryst.   s(12) = (     0         -1          0      )
                  (    -1          0          0      )
                  (     0          0          1      )

 cart.    s(12) = (  0.5000000 -0.8660254  0.0000000 )
                  ( -0.8660254 -0.5000000  0.0000000 )
                  (  0.0000000  0.0000000  1.0000000 )


   Cartesian axes

     site n.     atom                  positions (alat units)
         1           Mg  tau(   1) = (   0.0000000   0.0000000   0.0000000  )
         2           Mg  tau(   2) = (  -0.0000000   0.5773503   0.8119352  )

   Crystallographic axes

     site n.     atom                  positions (cryst. coord.)
         1           Mg  tau(   1) = (  0.0000000  0.0000000  0.0000000  )
         2           Mg  tau(   2) = (  0.3333333  0.6666667  0.5000000  )

     number of k points=    50  gaussian smearing, width (Ry)=  0.0010
                       cart. coord. in units 2pi/alat
        k(    1) = (   0.0000000   0.0000000   0.0000000), wk =   0.0400000
        k(    2) = (   0.0357143   0.0206197   0.0000000), wk =   0.0400000
        k(    3) = (   0.0714286   0.0412393   0.0000000), wk =   0.0400000
        k(    4) = (   0.1071429   0.0618590   0.0000000), wk =   0.0400000
        k(    5) = (   0.1428571   0.0824786   0.0000000), wk =   0.0400000
        k(    6) = (   0.1785714   0.1030983   0.0000000), wk =   0.0400000
        k(    7) = (   0.2142857   0.1237179   0.0000000), wk =   0.0400000
        k(    8) = (   0.2500000   0.1443376   0.0000000), wk =   0.0400000
        k(    9) = (   0.2857143   0.1649572   0.0000000), wk =   0.0400000
        k(   10) = (   0.3214286   0.1855769   0.0000000), wk =   0.0400000
        k(   11) = (   0.3571429   0.2061965   0.0000000), wk =   0.0400000
        k(   12) = (   0.3928571   0.2268162   0.0000000), wk =   0.0400000
        k(   13) = (   0.4285714   0.2474358   0.0000000), wk =   0.0400000
        k(   14) = (   0.4642857   0.2680555   0.0000000), wk =   0.0400000
        k(   15) = (   0.5000000   0.2886751   0.0000000), wk =   0.0400000
        k(   16) = (   0.4791667   0.3247595   0.0000000), wk =   0.0400000
        k(   17) = (   0.4583333   0.3608439   0.0000000), wk =   0.0400000
        k(   18) = (   0.4375000   0.3969283   0.0000000), wk =   0.0400000
        k(   19) = (   0.4166667   0.4330127   0.0000000), wk =   0.0400000
        k(   20) = (   0.3958333   0.4690971   0.0000000), wk =   0.0400000
        k(   21) = (   0.3750000   0.5051815   0.0000000), wk =   0.0400000
        k(   22) = (   0.3541667   0.5412659   0.0000000), wk =   0.0400000
        k(   23) = (   0.3333333   0.5773503   0.0000000), wk =   0.0400000
        k(   24) = (   0.3148148   0.5452753   0.0000000), wk =   0.0400000
        k(   25) = (   0.2962963   0.5132002   0.0000000), wk =   0.0400000
        k(   26) = (   0.2777778   0.4811252   0.0000000), wk =   0.0400000
        k(   27) = (   0.2592593   0.4490502   0.0000000), wk =   0.0400000
        k(   28) = (   0.2407407   0.4169752   0.0000000), wk =   0.0400000
        k(   29) = (   0.2222222   0.3849002   0.0000000), wk =   0.0400000
        k(   30) = (   0.2037037   0.3528252   0.0000000), wk =   0.0400000
        k(   31) = (   0.1851852   0.3207501   0.0000000), wk =   0.0400000
        k(   32) = (   0.1666667   0.2886751   0.0000000), wk =   0.0400000
        k(   33) = (   0.1481481   0.2566001   0.0000000), wk =   0.0400000
        k(   34) = (   0.1296296   0.2245251   0.0000000), wk =   0.0400000
        k(   35) = (   0.1111111   0.1924501   0.0000000), wk =   0.0400000
        k(   36) = (   0.0925926   0.1603751   0.0000000), wk =   0.0400000
        k(   37) = (   0.0740741   0.1283001   0.0000000), wk =   0.0400000
        k(   38) = (   0.0555556   0.0962250   0.0000000), wk =   0.0400000
        k(   39) = (   0.0370370   0.0641500   0.0000000), wk =   0.0400000
        k(   40) = (   0.0185185   0.0320750   0.0000000), wk =   0.0400000
        k(   41) = (   0.0000000   0.0000000   0.0000000), wk =   0.0400000
        k(   42) = (   0.0000000   0.0000000   0.0342118), wk =   0.0400000
        k(   43) = (   0.0000000   0.0000000   0.0684236), wk =   0.0400000
        k(   44) = (   0.0000000   0.0000000   0.1026355), wk =   0.0400000
        k(   45) = (   0.0000000   0.0000000   0.1368473), wk =   0.0400000
        k(   46) = (   0.0000000   0.0000000   0.1710591), wk =   0.0400000
        k(   47) = (   0.0000000   0.0000000   0.2052709), wk =   0.0400000
        k(   48) = (   0.0000000   0.0000000   0.2394827), wk =   0.0400000
        k(   49) = (   0.0000000   0.0000000   0.2736945), wk =   0.0400000
        k(   50) = (   0.0000000   0.0000000   0.3079064), wk =   0.0400000

                       cryst. coord.
        k(    1) = (   0.0000000   0.0000000   0.0000000), wk =   0.0400000
        k(    2) = (   0.0357143   0.0000000   0.0000000), wk =   0.0400000
        k(    3) = (   0.0714286   0.0000000   0.0000000), wk =   0.0400000
        k(    4) = (   0.1071429   0.0000000   0.0000000), wk =   0.0400000
        k(    5) = (   0.1428571   0.0000000   0.0000000), wk =   0.0400000
        k(    6) = (   0.1785714   0.0000000   0.0000000), wk =   0.0400000
        k(    7) = (   0.2142857   0.0000000   0.0000000), wk =   0.0400000
        k(    8) = (   0.2500000   0.0000000   0.0000000), wk =   0.0400000
        k(    9) = (   0.2857143   0.0000000   0.0000000), wk =   0.0400000
        k(   10) = (   0.3214286   0.0000000   0.0000000), wk =   0.0400000
        k(   11) = (   0.3571429   0.0000000   0.0000000), wk =   0.0400000
        k(   12) = (   0.3928571   0.0000000   0.0000000), wk =   0.0400000
        k(   13) = (   0.4285714   0.0000000   0.0000000), wk =   0.0400000
        k(   14) = (   0.4642857   0.0000000   0.0000000), wk =   0.0400000
        k(   15) = (   0.5000000   0.0000000   0.0000000), wk =   0.0400000
        k(   16) = (   0.4791667   0.0416667   0.0000000), wk =   0.0400000
        k(   17) = (   0.4583333   0.0833333   0.0000000), wk =   0.0400000
        k(   18) = (   0.4375000   0.1250000   0.0000000), wk =   0.0400000
        k(   19) = (   0.4166667   0.1666667   0.0000000), wk =   0.0400000
        k(   20) = (   0.3958333   0.2083333   0.0000000), wk =   0.0400000
        k(   21) = (   0.3750000   0.2500000   0.0000000), wk =   0.0400000
        k(   22) = (   0.3541667   0.2916667   0.0000000), wk =   0.0400000
        k(   23) = (   0.3333333   0.3333333   0.0000000), wk =   0.0400000
        k(   24) = (   0.3148148   0.3148148   0.0000000), wk =   0.0400000
        k(   25) = (   0.2962963   0.2962963   0.0000000), wk =   0.0400000
        k(   26) = (   0.2777778   0.2777778   0.0000000), wk =   0.0400000
        k(   27) = (   0.2592593   0.2592593   0.0000000), wk =   0.0400000
        k(   28) = (   0.2407407   0.2407407   0.0000000), wk =   0.0400000
        k(   29) = (   0.2222222   0.2222222   0.0000000), wk =   0.0400000
        k(   30) = (   0.2037037   0.2037037   0.0000000), wk =   0.0400000
        k(   31) = (   0.1851852   0.1851852   0.0000000), wk =   0.0400000
        k(   32) = (   0.1666667   0.1666667   0.0000000), wk =   0.0400000
        k(   33) = (   0.1481481   0.1481481   0.0000000), wk =   0.0400000
        k(   34) = (   0.1296296   0.1296296   0.0000000), wk =   0.0400000
        k(   35) = (   0.1111111   0.1111111   0.0000000), wk =   0.0400000
        k(   36) = (   0.0925926   0.0925926   0.0000000), wk =   0.0400000
        k(   37) = (   0.0740741   0.0740741   0.0000000), wk =   0.0400000
        k(   38) = (   0.0555556   0.0555556   0.0000000), wk =   0.0400000
        k(   39) = (   0.0370370   0.0370370   0.0000000), wk =   0.0400000
        k(   40) = (   0.0185185   0.0185185   0.0000000), wk =   0.0400000
        k(   41) = (   0.0000000   0.0000000   0.0000000), wk =   0.0400000
        k(   42) = (   0.0000000   0.0000000   0.0555556), wk =   0.0400000
        k(   43) = (   0.0000000   0.0000000   0.1111111), wk =   0.0400000
        k(   44) = (   0.0000000   0.0000000   0.1666667), wk =   0.0400000
        k(   45) = (   0.0000000   0.0000000   0.2222222), wk =   0.0400000
        k(   46) = (   0.0000000   0.0000000   0.2777778), wk =   0.0400000
        k(   47) = (   0.0000000   0.0000000   0.3333333), wk =   0.0400000
        k(   48) = (   0.0000000   0.0000000   0.3888889), wk =   0.0400000
        k(   49) = (   0.0000000   0.0000000   0.4444444), wk =   0.0400000
        k(   50) = (   0.0000000   0.0000000   0.5000000), wk =   0.0400000

     Dense  grid:    14979 G-vectors     FFT dimensions: (  27,  27,  45)

     Smooth grid:    10695 G-vectors     FFT dimensions: (  25,  25,  40)

     Estimated max dynamical RAM per process >      21.85Mb

     The potential is recalculated from file :
     ./pwscf.save/charge-density.dat

     Starting wfc are   10 randomized atomic wfcs +    4 random wfc

     Band Structure Calculation
     Davidson diagonalization with overlap

     Computing kpt #:     1
     total cpu time spent up to now is        1.0 secs

     Computing kpt #:     2
     total cpu time spent up to now is        1.2 secs

     Computing kpt #:     3
     total cpu time spent up to now is        1.4 secs

     Computing kpt #:     4
     total cpu time spent up to now is        1.7 secs

     Computing kpt #:     5
     total cpu time spent up to now is        1.9 secs

     Computing kpt #:     6
     total cpu time spent up to now is        2.1 secs

     Computing kpt #:     7
     total cpu time spent up to now is        2.4 secs

     Computing kpt #:     8
     total cpu time spent up to now is        2.6 secs

     Computing kpt #:     9
     total cpu time spent up to now is        2.8 secs

     Computing kpt #:    10
     total cpu time spent up to now is        3.1 secs

     Computing kpt #:    11
     total cpu time spent up to now is        3.3 secs

     Computing kpt #:    12
     total cpu time spent up to now is        3.5 secs

     Computing kpt #:    13
     total cpu time spent up to now is        3.7 secs

     Computing kpt #:    14
     total cpu time spent up to now is        3.9 secs

     Computing kpt #:    15
     total cpu time spent up to now is        4.2 secs

     Computing kpt #:    16
     total cpu time spent up to now is        4.4 secs

     Computing kpt #:    17
     total cpu time spent up to now is        4.6 secs

     Computing kpt #:    18
     total cpu time spent up to now is        4.8 secs

     Computing kpt #:    19
     total cpu time spent up to now is        5.1 secs

     Computing kpt #:    20
     total cpu time spent up to now is        5.3 secs

     Computing kpt #:    21
     total cpu time spent up to now is        5.5 secs

     Computing kpt #:    22
     total cpu time spent up to now is        5.7 secs

     Computing kpt #:    23
     total cpu time spent up to now is        6.0 secs

     Computing kpt #:    24
     total cpu time spent up to now is        6.2 secs

     Computing kpt #:    25
     total cpu time spent up to now is        6.4 secs

     Computing kpt #:    26
     total cpu time spent up to now is        6.6 secs

     Computing kpt #:    27
     total cpu time spent up to now is        6.9 secs

     Computing kpt #:    28
     total cpu time spent up to now is        7.1 secs

     Computing kpt #:    29
     total cpu time spent up to now is        7.3 secs

     Computing kpt #:    30
     total cpu time spent up to now is        7.6 secs

     Computing kpt #:    31
     total cpu time spent up to now is        7.8 secs

     Computing kpt #:    32
     total cpu time spent up to now is        8.0 secs

     Computing kpt #:    33
     total cpu time spent up to now is        8.3 secs

     Computing kpt #:    34
     total cpu time spent up to now is        8.6 secs

     Computing kpt #:    35
     total cpu time spent up to now is        8.9 secs

     Computing kpt #:    36
     total cpu time spent up to now is        9.4 secs

     Computing kpt #:    37
     total cpu time spent up to now is        9.8 secs

     Computing kpt #:    38
     total cpu time spent up to now is       10.1 secs

     Computing kpt #:    39
     total cpu time spent up to now is       10.3 secs

     Computing kpt #:    40
     total cpu time spent up to now is       10.7 secs

     Computing kpt #:    41
     total cpu time spent up to now is       11.0 secs

     Computing kpt #:    42
     total cpu time spent up to now is       11.4 secs

     Computing kpt #:    43
     total cpu time spent up to now is       11.8 secs

     Computing kpt #:    44
     total cpu time spent up to now is       12.2 secs

     Computing kpt #:    45
     total cpu time spent up to now is       12.6 secs

     Computing kpt #:    46
     total cpu time spent up to now is       13.0 secs

     Computing kpt #:    47
     total cpu time spent up to now is       13.5 secs

     Computing kpt #:    48
     total cpu time spent up to now is       13.9 secs

     Computing kpt #:    49
     total cpu time spent up to now is       14.4 secs

     Computing kpt #:    50
     total cpu time spent up to now is       14.9 secs

     ethr =  5.00E-10,  avg # of iterations = 21.1

     total cpu time spent up to now is       14.9 secs

     End of band structure calculation

          k = 0.0000 0.0000 0.0000 (  1315 PWs)   bands (ev):

   -70.7123 -70.7095 -37.5012 -37.4704 -37.4689 -37.4689 -37.4642 -37.4642
    -1.5649   3.6532   4.0727  16.1875  16.1875  16.2888

          k = 0.0357 0.0206 0.0000 (  1337 PWs)   bands (ev):

   -70.7123 -70.7094 -37.5011 -37.4705 -37.4692 -37.4690 -37.4645 -37.4643
    -1.5399   3.6759   4.0971  15.3544  15.6729  16.3344

          k = 0.0714 0.0412 0.0000 (  1343 PWs)   bands (ev):

   -70.7122 -70.7094 -37.5007 -37.4706 -37.4700 -37.4693 -37.4654 -37.4644
    -1.4649   3.7441   4.1699  14.2834  15.1506  15.9448

          k = 0.1071 0.0619 0.0000 (  1333 PWs)   bands (ev):

   -70.7120 -70.7093 -37.5001 -37.4713 -37.4709 -37.4697 -37.4667 -37.4647
    -1.3402   3.8578   4.2908  13.1896  14.6687  15.4531

          k = 0.1429 0.0825 0.0000 (  1331 PWs)   bands (ev):

   -70.7118 -70.7092 -37.4993 -37.4731 -37.4713 -37.4703 -37.4685 -37.4650
    -1.1658   4.0170   4.4589  12.1114  14.2283  14.9334

          k = 0.1786 0.1031 0.0000 (  1339 PWs)   bands (ev):

   -70.7116 -70.7091 -37.4983 -37.4752 -37.4717 -37.4709 -37.4707 -37.4654
    -0.9422   4.2219   4.6727  11.0634  13.8300  14.4021

          k = 0.2143 0.1237 0.0000 (  1345 PWs)   bands (ev):

   -70.7113 -70.7090 -37.4971 -37.4775 -37.4731 -37.4723 -37.4717 -37.4659
    -0.6697   4.4724   4.9297  10.0533  13.4738  13.8562

          k = 0.2500 0.1443 0.0000 (  1335 PWs)   bands (ev):

   -70.7111 -70.7089 -37.4958 -37.4800 -37.4756 -37.4730 -37.4724 -37.4663
    -0.3486   4.7686   5.2247   9.0887  13.1597  13.2848

          k = 0.2857 0.1650 0.0000 (  1333 PWs)   bands (ev):

   -70.7108 -70.7088 -37.4944 -37.4825 -37.4781 -37.4738 -37.4732 -37.4668
     0.0203   5.1106   5.5444   8.1836  12.6784  12.8343

          k = 0.3214 0.1856 0.0000 (  1332 PWs)   bands (ev):

   -70.7105 -70.7087 -37.4930 -37.4849 -37.4805 -37.4746 -37.4739 -37.4673
     0.4365   5.4984   5.8369   7.3899  11.9409  12.0380

          k = 0.3571 0.2062 0.0000 (  1336 PWs)   bands (ev):

   -70.7102 -70.7087 -37.4916 -37.4870 -37.4826 -37.4755 -37.4746 -37.4677
     0.8994   5.8350   5.9320   6.9739  11.0921  11.3754

          k = 0.3929 0.2268 0.0000 (  1328 PWs)   bands (ev):

   -70.7100 -70.7086 -37.4903 -37.4888 -37.4843 -37.4764 -37.4751 -37.4681
     1.4081   5.2851   6.4109   7.1877  10.2894  10.7071

          k = 0.4286 0.2474 0.0000 (  1336 PWs)   bands (ev):

   -70.7098 -70.7086 -37.4902 -37.4891 -37.4856 -37.4772 -37.4755 -37.4684
     1.9617   4.5797   6.9340   7.6355   9.5347  10.0492

          k = 0.4643 0.2681 0.0000 (  1338 PWs)   bands (ev):

   -70.7097 -70.7086 -37.4910 -37.4884 -37.4865 -37.4778 -37.4757 -37.4685
     2.5587   3.8739   7.4951   8.1524   8.8345   9.4211

          k = 0.5000 0.2887 0.0000 (  1336 PWs)   bands (ev):

   -70.7097 -70.7086 -37.4913 -37.4881 -37.4867 -37.4780 -37.4758 -37.4686
     3.1957   3.1990   7.9562   8.3270   8.5618   8.9757

          k = 0.4792 0.3248 0.0000 (  1346 PWs)   bands (ev):

   -70.7097 -70.7086 -37.4912 -37.4880 -37.4866 -37.4781 -37.4760 -37.4688
     3.2202   3.2228   7.9790   8.3508   8.5837   8.9461

          k = 0.4583 0.3608 0.0000 (  1340 PWs)   bands (ev):

   -70.7096 -70.7086 -37.4908 -37.4877 -37.4863 -37.4783 -37.4766 -37.4696
     3.2935   3.2941   8.0474   8.4222   8.6489   8.8138

          k = 0.4375 0.3969 0.0000 (  1340 PWs)   bands (ev):

   -70.7095 -70.7086 -37.4903 -37.4872 -37.4857 -37.4787 -37.4776 -37.4708
     3.4129   3.4155   8.1614   8.4574   8.5409   8.7566

          k = 0.4167 0.4330 0.0000 (  1340 PWs)   bands (ev):

   -70.7095 -70.7086 -37.4896 -37.4866 -37.4850 -37.4792 -37.4788 -37.4723
     3.5792   3.5856   7.8369   8.3212   8.7059   8.9044

          k = 0.3958 0.4691 0.0000 (  1340 PWs)   bands (ev):

   -70.7094 -70.7086 -37.4887 -37.4858 -37.4842 -37.4801 -37.4798 -37.4740
     3.7929   3.8031   7.0768   8.5267   8.9154   9.0877

          k = 0.3750 0.5052 0.0000 (  1348 PWs)   bands (ev):

   -70.7093 -70.7086 -37.4878 -37.4849 -37.4833 -37.4813 -37.4807 -37.4757
     4.0539   4.0670   6.2794   8.7780   9.1632   9.2958

          k = 0.3542 0.5413 0.0000 (  1358 PWs)   bands (ev):

   -70.7092 -70.7086 -37.4871 -37.4838 -37.4827 -37.4821 -37.4816 -37.4772
     4.3623   4.3758   5.4884   9.0753   9.4194   9.4993

          k = 0.3333 0.5774 0.0000 (  1362 PWs)   bands (ev):

   -70.7092 -70.7086 -37.4868 -37.4830 -37.4827 -37.4824 -37.4821 -37.4778
     4.7136   4.7268   4.7269   9.4187   9.4187   9.6078

          k = 0.3148 0.5453 0.0000 (  1358 PWs)   bands (ev):

   -70.7092 -70.7086 -37.4869 -37.4838 -37.4830 -37.4818 -37.4816 -37.4774
     4.0696   5.0707   5.0739   8.9252   9.4753   9.7627

          k = 0.2963 0.5132 0.0000 (  1350 PWs)   bands (ev):

   -70.7093 -70.7086 -37.4871 -37.4849 -37.4837 -37.4808 -37.4806 -37.4765
     3.4468   5.4382   5.4669   8.3484   9.1223  10.1433

          k = 0.2778 0.4811 0.0000 (  1352 PWs)   bands (ev):

   -70.7094 -70.7086 -37.4871 -37.4862 -37.4843 -37.4797 -37.4795 -37.4753
     2.8562   5.8158   5.8970   7.7872   8.7000  10.5606

          k = 0.2593 0.4491 0.0000 (  1364 PWs)   bands (ev):

   -70.7096 -70.7086 -37.4875 -37.4868 -37.4846 -37.4785 -37.4785 -37.4741
     2.2994   6.1696   6.3643   7.2567   8.3211  11.0145

          k = 0.2407 0.4170 0.0000 (  1352 PWs)   bands (ev):

   -70.7098 -70.7086 -37.4888 -37.4860 -37.4845 -37.4775 -37.4772 -37.4729
     1.7773   6.4129   6.7607   6.8685   8.1009  11.5052

          k = 0.2222 0.3849 0.0000 (  1336 PWs)   bands (ev):

   -70.7100 -70.7086 -37.4902 -37.4850 -37.4840 -37.4765 -37.4760 -37.4717
     1.2910   6.3007   6.4158   7.4095   8.1804  12.0327

          k = 0.2037 0.3528 0.0000 (  1332 PWs)   bands (ev):

   -70.7102 -70.7087 -37.4916 -37.4836 -37.4831 -37.4755 -37.4748 -37.4705
     0.8410   5.8773   6.2017   7.9871   8.5414  12.5969

          k = 0.1852 0.3208 0.0000 (  1332 PWs)   bands (ev):

   -70.7105 -70.7087 -37.4929 -37.4822 -37.4815 -37.4747 -37.4737 -37.4694
     0.4282   5.4907   5.9018   8.6011   9.0551  13.1978

          k = 0.1667 0.2887 0.0000 (  1330 PWs)   bands (ev):

   -70.7107 -70.7088 -37.4943 -37.4807 -37.4795 -37.4739 -37.4727 -37.4684
     0.0530   5.1410   5.5876   9.2510   9.6511  13.8351

          k = 0.1481 0.2566 0.0000 (  1328 PWs)   bands (ev):

   -70.7110 -70.7089 -37.4956 -37.4790 -37.4774 -37.4732 -37.4717 -37.4675
    -0.2841   4.8284   5.2871   9.9364  10.3020  14.5085

          k = 0.1296 0.2245 0.0000 (  1336 PWs)   bands (ev):

   -70.7113 -70.7090 -37.4968 -37.4773 -37.4752 -37.4725 -37.4708 -37.4667
    -0.5826   4.5526   5.0120  10.6563  10.9959  15.2174

          k = 0.1111 0.1925 0.0000 (  1344 PWs)   bands (ev):

   -70.7115 -70.7091 -37.4979 -37.4755 -37.4732 -37.4720 -37.4698 -37.4660
    -0.8421   4.3138   4.7680  11.4097  11.7259  15.9606

          k = 0.0926 0.1604 0.0000 (  1342 PWs)   bands (ev):

   -70.7117 -70.7092 -37.4988 -37.4737 -37.4715 -37.4715 -37.4687 -37.4654
    -1.0623   4.1118   4.5583  12.1946  12.4866  16.6965

          k = 0.0741 0.1283 0.0000 (  1344 PWs)   bands (ev):

   -70.7119 -70.7093 -37.4996 -37.4721 -37.4711 -37.4703 -37.4675 -37.4650
    -1.2429   3.9466   4.3848  13.0079  13.2718  16.8286

          k = 0.0556 0.0962 0.0000 (  1336 PWs)   bands (ev):

   -70.7121 -70.7094 -37.5003 -37.4708 -37.4708 -37.4696 -37.4662 -37.4646
    -1.3836   3.8182   4.2488  13.8442  14.0719  16.7233

          k = 0.0370 0.0642 0.0000 (  1337 PWs)   bands (ev):

   -70.7122 -70.7094 -37.5008 -37.4706 -37.4698 -37.4692 -37.4651 -37.4644
    -1.4843   3.7265   4.1511  14.6924  14.8681  16.6340

          k = 0.0185 0.0321 0.0000 (  1331 PWs)   bands (ev):

   -70.7123 -70.7094 -37.5011 -37.4705 -37.4691 -37.4690 -37.4645 -37.4643
    -1.5447   3.6715   4.0924  15.5246  15.6184  16.5417

          k = 0.0000 0.0000 0.0000 (  1315 PWs)   bands (ev):

   -70.7123 -70.7095 -37.5012 -37.4704 -37.4689 -37.4689 -37.4642 -37.4642
    -1.5649   3.6532   4.0727  16.1875  16.1875  16.2888

          k = 0.0000 0.0000 0.0342 (  1315 PWs)   bands (ev):

   -70.7123 -70.7095 -37.5009 -37.4706 -37.4689 -37.4689 -37.4643 -37.4643
    -1.5477   3.2538   4.5019  16.2012  16.2012  16.3005

          k = 0.0000 0.0000 0.0684 (  1328 PWs)   bands (ev):

   -70.7122 -70.7095 -37.5003 -37.4713 -37.4688 -37.4688 -37.4644 -37.4644
    -1.4961   2.7288   5.1161  16.2420  16.2420  16.3338

          k = 0.0000 0.0000 0.1026 (  1322 PWs)   bands (ev):

   -70.7121 -70.7096 -37.4991 -37.4725 -37.4686 -37.4686 -37.4645 -37.4645
    -1.4101   2.2226   5.7710  15.5663  16.3093  16.3093

          k = 0.0000 0.0000 0.1368 (  1316 PWs)   bands (ev):

   -70.7120 -70.7098 -37.4976 -37.4740 -37.4684 -37.4684 -37.4648 -37.4648
    -1.2899   1.7443   6.4574  14.7024  16.4013  16.4013

          k = 0.0000 0.0000 0.1711 (  1310 PWs)   bands (ev):

   -70.7118 -70.7099 -37.4957 -37.4759 -37.4681 -37.4681 -37.4650 -37.4650
    -1.1357   1.2960   7.1732  13.8077  16.5150  16.5150

          k = 0.0000 0.0000 0.2053 (  1310 PWs)   bands (ev):

   -70.7116 -70.7101 -37.4935 -37.4781 -37.4678 -37.4678 -37.4654 -37.4654
    -0.9475   0.8787   7.9172  12.9108  16.6443  16.6443

          k = 0.0000 0.0000 0.2395 (  1304 PWs)   bands (ev):

   -70.7114 -70.7103 -37.4911 -37.4806 -37.4674 -37.4674 -37.4657 -37.4657
    -0.7257   0.4929   8.6885  12.0247  16.7763  16.7763

          k = 0.0000 0.0000 0.2737 (  1328 PWs)   bands (ev):

   -70.7112 -70.7105 -37.4885 -37.4832 -37.4671 -37.4671 -37.4661 -37.4661
    -0.4704   0.1392   9.4863  11.1563  16.8850  16.8850

          k = 0.0000 0.0000 0.3079 (  1316 PWs)   bands (ev):

   -70.7112 -70.7106 -37.4861 -37.4856 -37.4669 -37.4669 -37.4663 -37.4663
    -0.1821  -0.1819  10.3094  10.3094  16.9302  16.9302

     Writing output data file pwscf.save

     init_run     :      0.61s CPU      0.53s WALL (       1 calls)
     electrons    :     28.16s CPU     14.22s WALL (       1 calls)

     Called by init_run:
     wfcinit      :      0.00s CPU      0.00s WALL (       1 calls)
     wfcinit:atom :      0.00s CPU      0.03s WALL (      50 calls)
     wfcinit:wfcr :      1.92s CPU      0.92s WALL (      50 calls)
     potinit      :      0.03s CPU      0.03s WALL (       1 calls)

     Called by electrons:
     c_bands      :     28.16s CPU     14.22s WALL (       1 calls)
     v_of_rho     :      0.02s CPU      0.03s WALL (       1 calls)
     v_h          :      0.00s CPU      0.00s WALL (       1 calls)
     v_xc         :      0.02s CPU      0.03s WALL (       1 calls)
     newd         :      0.05s CPU      0.10s WALL (       1 calls)

     Called by c_bands:
     init_us_2    :      0.08s CPU      0.07s WALL (      50 calls)
     cegterg      :     25.38s CPU     12.82s WALL (      73 calls)

     Called by sum_band:

     Called by *egterg:
     h_psi        :     16.78s CPU      8.41s WALL (    1178 calls)
     s_psi        :      1.28s CPU      0.49s WALL (    1178 calls)
     g_psi        :      0.33s CPU      0.10s WALL (    1055 calls)
     cdiaghg      :      4.47s CPU      2.34s WALL (    1105 calls)
     cegterg:over :      1.64s CPU      0.89s WALL (    1055 calls)
     cegterg:upda :      1.33s CPU      0.76s WALL (    1055 calls)
     cegterg:last :      0.69s CPU      0.40s WALL (     176 calls)

     Called by h_psi:
     h_psi:pot    :     16.73s CPU      8.33s WALL (    1178 calls)
     h_psi:calbec :      1.30s CPU      0.56s WALL (    1178 calls)
     vloc_psi     :     14.41s CPU      7.18s WALL (    1178 calls)
     add_vuspsi   :      0.94s CPU      0.56s WALL (    1178 calls)

     General routines
     calbec       :      1.23s CPU      0.54s WALL (    1178 calls)
     fft          :      0.02s CPU      0.01s WALL (      12 calls)
     ffts         :      0.00s CPU      0.00s WALL (       1 calls)
     fftw         :     12.27s CPU      6.13s WALL (   13986 calls)
     interpolate  :      0.02s CPU      0.00s WALL (       1 calls)
     davcio       :      0.00s CPU      0.01s WALL (      50 calls)

     Parallel routines
     fft_scatter  :      0.97s CPU      0.54s WALL (   13999 calls)

     PWSCF        :    29.23s CPU        15.22s WALL


   This run was terminated on:  11:31:50  25Feb2021            

=------------------------------------------------------------------------------=
   JOB DONE.
=------------------------------------------------------------------------------=
