
     Program PWSCF v.6.0 (svn rev. 13079) starts on 25Feb2021 at 12:14: 9 

     This program is part of the open-source Quantum ESPRESSO suite
     for quantum simulation of materials; please cite
         "P. Giannozzi et al., J. Phys.:Condens. Matter 21 395502 (2009);
          URL http://www.quantum-espresso.org", 
     in publications or presentations arising from this work. More details at
     http://www.quantum-espresso.org/quote

     Parallel version (MPI), running on     1 processors
     Reading input from espresso.pwi
Warning: card &IONS ignored
Warning: card / ignored
Warning: card &CELL ignored
Warning: card / ignored

     Current dimensions of program PWSCF are:
     Max number of different atomic species (ntypx) = 10
     Max number of k-points (npk) =  40000
     Max angular momentum in pseudopotentials (lmaxx) =  3
     Message from routine input:
     WARNING: "startingwfc" set to atomic+random may spoil restart

     Atomic positions and unit cell read from directory:
     ./pwscf.save/


     IMPORTANT: XC functional enforced from input :
     Exchange-correlation      = PBE ( 1  4  3  4 0 0)
     Any further DFT definition will be discarded
     Please, verify this is what you really want


     Subspace diagonalization in iterative solution of the eigenvalue problem:
     a serial algorithm will be used


     G-vector sticks info
     --------------------
     sticks:   dense  smooth     PW     G-vecs:    dense   smooth      PW
     Sum         483     395    129                 6819     4921     959



     bravais-lattice index     =            0
     lattice parameter (alat)  =       5.7181  a.u.
     unit-cell volume          =     143.9247 (a.u.)^3
     number of atoms/cell      =            1
     number of atomic types    =            1
     number of electrons       =         7.00
     number of Kohn-Sham states=            8
     kinetic-energy cutoff     =      40.0000  Ry
     charge density cutoff     =     200.0000  Ry
     Exchange-correlation      = PBE ( 1  4  3  4 0 0)

     celldm(1)=   5.718109  celldm(2)=   0.000000  celldm(3)=   0.000000
     celldm(4)=   0.000000  celldm(5)=   0.000000  celldm(6)=   0.000000

     crystal axes: (cart. coord. in units of alat)
               a(1) = (  -0.577350   0.577350   0.577350 )  
               a(2) = (   0.577350  -0.577350   0.577350 )  
               a(3) = (   0.577350   0.577350  -0.577350 )  

     reciprocal axes: (cart. coord. in units 2 pi/alat)
               b(1) = (  0.000000  0.866025  0.866025 )  
               b(2) = (  0.866025  0.000000  0.866025 )  
               b(3) = (  0.866025  0.866025  0.000000 )  


     PseudoPot. # 1 for Cl read from file:
     /home/inukai/tango/tests/1element/qe_fit_v2_Cl/../pseudo/cl_pbe_v1.4.uspp.F.UPF
     MD5 check sum: fc6f6913ecf08c9257cb748ef0700058
     Pseudo is Ultrasoft + core correction, Zval =  7.0
     Generated by new atomic code, or converted to UPF format
     Using radial grid of  909 points,  6 beta functions with: 
                l(1) =   0
                l(2) =   0
                l(3) =   1
                l(4) =   1
                l(5) =   2
                l(6) =   2
     Q(r) pseudized with  8 coefficients,  rinner =    1.300   1.300   1.300
                                                       1.300   1.300

     atomic species   valence    mass     pseudopotential
        Cl             7.00    35.45000     Cl( 1.00)

     48 Sym. Ops., with inversion, found


                                    s                        frac. trans.

      isym =  1     identity                                     

 cryst.   s( 1) = (     1          0          0      )
                  (     0          1          0      )
                  (     0          0          1      )

 cart.    s( 1) = (  1.0000000  0.0000000  0.0000000 )
                  (  0.0000000  1.0000000  0.0000000 )
                  (  0.0000000  0.0000000  1.0000000 )


      isym =  2     180 deg rotation - cart. axis [0,0,1]        

 cryst.   s( 2) = (     0          1          0      )
                  (     1          0          0      )
                  (    -1         -1         -1      )

 cart.    s( 2) = ( -1.0000000  0.0000000  0.0000000 )
                  (  0.0000000 -1.0000000  0.0000000 )
                  (  0.0000000  0.0000000  1.0000000 )


      isym =  3     180 deg rotation - cart. axis [0,1,0]        

 cryst.   s( 3) = (     0          0          1      )
                  (    -1         -1         -1      )
                  (     1          0          0      )

 cart.    s( 3) = ( -1.0000000  0.0000000  0.0000000 )
                  (  0.0000000  1.0000000  0.0000000 )
                  (  0.0000000  0.0000000 -1.0000000 )


      isym =  4     180 deg rotation - cart. axis [1,0,0]        

 cryst.   s( 4) = (    -1         -1         -1      )
                  (     0          0          1      )
                  (     0          1          0      )

 cart.    s( 4) = (  1.0000000  0.0000000  0.0000000 )
                  (  0.0000000 -1.0000000  0.0000000 )
                  (  0.0000000  0.0000000 -1.0000000 )


      isym =  5     180 deg rotation - cart. axis [1,1,0]        

 cryst.   s( 5) = (    -1          0          0      )
                  (     0         -1          0      )
                  (     1          1          1      )

 cart.    s( 5) = (  0.0000000  1.0000000  0.0000000 )
                  (  1.0000000  0.0000000  0.0000000 )
                  (  0.0000000  0.0000000 -1.0000000 )


      isym =  6     180 deg rotation - cart. axis [1,-1,0]       

 cryst.   s( 6) = (     0         -1          0      )
                  (    -1          0          0      )
                  (     0          0         -1      )

 cart.    s( 6) = (  0.0000000 -1.0000000  0.0000000 )
                  ( -1.0000000  0.0000000  0.0000000 )
                  (  0.0000000  0.0000000 -1.0000000 )


      isym =  7      90 deg rotation - cart. axis [0,0,-1]       

 cryst.   s( 7) = (     1          1          1      )
                  (     0          0         -1      )
                  (    -1          0          0      )

 cart.    s( 7) = (  0.0000000  1.0000000  0.0000000 )
                  ( -1.0000000  0.0000000  0.0000000 )
                  (  0.0000000  0.0000000  1.0000000 )


      isym =  8      90 deg rotation - cart. axis [0,0,1]        

 cryst.   s( 8) = (     0          0         -1      )
                  (     1          1          1      )
                  (     0         -1          0      )

 cart.    s( 8) = (  0.0000000 -1.0000000  0.0000000 )
                  (  1.0000000  0.0000000  0.0000000 )
                  (  0.0000000  0.0000000  1.0000000 )


      isym =  9     180 deg rotation - cart. axis [1,0,1]        

 cryst.   s( 9) = (    -1          0          0      )
                  (     1          1          1      )
                  (     0          0         -1      )

 cart.    s( 9) = (  0.0000000  0.0000000  1.0000000 )
                  (  0.0000000 -1.0000000  0.0000000 )
                  (  1.0000000  0.0000000  0.0000000 )


      isym = 10     180 deg rotation - cart. axis [-1,0,1]       

 cryst.   s(10) = (     0          0         -1      )
                  (     0         -1          0      )
                  (    -1          0          0      )

 cart.    s(10) = (  0.0000000  0.0000000 -1.0000000 )
                  (  0.0000000 -1.0000000  0.0000000 )
                  ( -1.0000000  0.0000000  0.0000000 )


      isym = 11      90 deg rotation - cart. axis [0,1,0]        

 cryst.   s(11) = (     1          1          1      )
                  (    -1          0          0      )
                  (     0         -1          0      )

 cart.    s(11) = (  0.0000000  0.0000000  1.0000000 )
                  (  0.0000000  1.0000000  0.0000000 )
                  ( -1.0000000  0.0000000  0.0000000 )


      isym = 12      90 deg rotation - cart. axis [0,-1,0]       

 cryst.   s(12) = (     0         -1          0      )
                  (     0          0         -1      )
                  (     1          1          1      )

 cart.    s(12) = (  0.0000000  0.0000000 -1.0000000 )
                  (  0.0000000  1.0000000  0.0000000 )
                  (  1.0000000  0.0000000  0.0000000 )


      isym = 13     180 deg rotation - cart. axis [0,1,1]        

 cryst.   s(13) = (     1          1          1      )
                  (     0         -1          0      )
                  (     0          0         -1      )

 cart.    s(13) = ( -1.0000000  0.0000000  0.0000000 )
                  (  0.0000000  0.0000000  1.0000000 )
                  (  0.0000000  1.0000000  0.0000000 )


      isym = 14     180 deg rotation - cart. axis [0,1,-1]       

 cryst.   s(14) = (    -1          0          0      )
                  (     0          0         -1      )
                  (     0         -1          0      )

 cart.    s(14) = ( -1.0000000  0.0000000  0.0000000 )
                  (  0.0000000  0.0000000 -1.0000000 )
                  (  0.0000000 -1.0000000  0.0000000 )


      isym = 15      90 deg rotation - cart. axis [-1,0,0]       

 cryst.   s(15) = (     0         -1          0      )
                  (     1          1          1      )
                  (    -1          0          0      )

 cart.    s(15) = (  1.0000000  0.0000000  0.0000000 )
                  (  0.0000000  0.0000000  1.0000000 )
                  (  0.0000000 -1.0000000  0.0000000 )


      isym = 16      90 deg rotation - cart. axis [1,0,0]        

 cryst.   s(16) = (     0          0         -1      )
                  (    -1          0          0      )
                  (     1          1          1      )

 cart.    s(16) = (  1.0000000  0.0000000  0.0000000 )
                  (  0.0000000  0.0000000 -1.0000000 )
                  (  0.0000000  1.0000000  0.0000000 )


      isym = 17     120 deg rotation - cart. axis [-1,-1,-1]     

 cryst.   s(17) = (     0          0          1      )
                  (     1          0          0      )
                  (     0          1          0      )

 cart.    s(17) = (  0.0000000  1.0000000  0.0000000 )
                  (  0.0000000  0.0000000  1.0000000 )
                  (  1.0000000  0.0000000  0.0000000 )


      isym = 18     120 deg rotation - cart. axis [-1,1,1]       

 cryst.   s(18) = (     1          0          0      )
                  (     0          0          1      )
                  (    -1         -1         -1      )

 cart.    s(18) = (  0.0000000 -1.0000000  0.0000000 )
                  (  0.0000000  0.0000000  1.0000000 )
                  ( -1.0000000  0.0000000  0.0000000 )


      isym = 19     120 deg rotation - cart. axis [1,1,-1]       

 cryst.   s(19) = (     0          1          0      )
                  (    -1         -1         -1      )
                  (     0          0          1      )

 cart.    s(19) = (  0.0000000  1.0000000  0.0000000 )
                  (  0.0000000  0.0000000 -1.0000000 )
                  ( -1.0000000  0.0000000  0.0000000 )


      isym = 20     120 deg rotation - cart. axis [1,-1,1]       

 cryst.   s(20) = (    -1         -1         -1      )
                  (     0          1          0      )
                  (     1          0          0      )

 cart.    s(20) = (  0.0000000 -1.0000000  0.0000000 )
                  (  0.0000000  0.0000000 -1.0000000 )
                  (  1.0000000  0.0000000  0.0000000 )


      isym = 21     120 deg rotation - cart. axis [1,1,1]        

 cryst.   s(21) = (     0          1          0      )
                  (     0          0          1      )
                  (     1          0          0      )

 cart.    s(21) = (  0.0000000  0.0000000  1.0000000 )
                  (  1.0000000  0.0000000  0.0000000 )
                  (  0.0000000  1.0000000  0.0000000 )


      isym = 22     120 deg rotation - cart. axis [-1,1,-1]      

 cryst.   s(22) = (     0          0          1      )
                  (     0          1          0      )
                  (    -1         -1         -1      )

 cart.    s(22) = (  0.0000000  0.0000000  1.0000000 )
                  ( -1.0000000  0.0000000  0.0000000 )
                  (  0.0000000 -1.0000000  0.0000000 )


      isym = 23     120 deg rotation - cart. axis [1,-1,-1]      

 cryst.   s(23) = (     1          0          0      )
                  (    -1         -1         -1      )
                  (     0          1          0      )

 cart.    s(23) = (  0.0000000  0.0000000 -1.0000000 )
                  ( -1.0000000  0.0000000  0.0000000 )
                  (  0.0000000  1.0000000  0.0000000 )


      isym = 24     120 deg rotation - cart. axis [-1,-1,1]      

 cryst.   s(24) = (    -1         -1         -1      )
                  (     1          0          0      )
                  (     0          0          1      )

 cart.    s(24) = (  0.0000000  0.0000000 -1.0000000 )
                  (  1.0000000  0.0000000  0.0000000 )
                  (  0.0000000 -1.0000000  0.0000000 )


      isym = 25     inversion                                    

 cryst.   s(25) = (    -1          0          0      )
                  (     0         -1          0      )
                  (     0          0         -1      )

 cart.    s(25) = ( -1.0000000  0.0000000  0.0000000 )
                  (  0.0000000 -1.0000000  0.0000000 )
                  (  0.0000000  0.0000000 -1.0000000 )


      isym = 26     inv. 180 deg rotation - cart. axis [0,0,1]   

 cryst.   s(26) = (     0         -1          0      )
                  (    -1          0          0      )
                  (     1          1          1      )

 cart.    s(26) = (  1.0000000  0.0000000  0.0000000 )
                  (  0.0000000  1.0000000  0.0000000 )
                  (  0.0000000  0.0000000 -1.0000000 )


      isym = 27     inv. 180 deg rotation - cart. axis [0,1,0]   

 cryst.   s(27) = (     0          0         -1      )
                  (     1          1          1      )
                  (    -1          0          0      )

 cart.    s(27) = (  1.0000000  0.0000000  0.0000000 )
                  (  0.0000000 -1.0000000  0.0000000 )
                  (  0.0000000  0.0000000  1.0000000 )


      isym = 28     inv. 180 deg rotation - cart. axis [1,0,0]   

 cryst.   s(28) = (     1          1          1      )
                  (     0          0         -1      )
                  (     0         -1          0      )

 cart.    s(28) = ( -1.0000000  0.0000000  0.0000000 )
                  (  0.0000000  1.0000000  0.0000000 )
                  (  0.0000000  0.0000000  1.0000000 )


      isym = 29     inv. 180 deg rotation - cart. axis [1,1,0]   

 cryst.   s(29) = (     1          0          0      )
                  (     0          1          0      )
                  (    -1         -1         -1      )

 cart.    s(29) = (  0.0000000 -1.0000000  0.0000000 )
                  ( -1.0000000  0.0000000  0.0000000 )
                  (  0.0000000  0.0000000  1.0000000 )


      isym = 30     inv. 180 deg rotation - cart. axis [1,-1,0]  

 cryst.   s(30) = (     0          1          0      )
                  (     1          0          0      )
                  (     0          0          1      )

 cart.    s(30) = (  0.0000000  1.0000000  0.0000000 )
                  (  1.0000000  0.0000000  0.0000000 )
                  (  0.0000000  0.0000000  1.0000000 )


      isym = 31     inv.  90 deg rotation - cart. axis [0,0,-1]  

 cryst.   s(31) = (    -1         -1         -1      )
                  (     0          0          1      )
                  (     1          0          0      )

 cart.    s(31) = (  0.0000000 -1.0000000  0.0000000 )
                  (  1.0000000  0.0000000  0.0000000 )
                  (  0.0000000  0.0000000 -1.0000000 )


      isym = 32     inv.  90 deg rotation - cart. axis [0,0,1]   

 cryst.   s(32) = (     0          0          1      )
                  (    -1         -1         -1      )
                  (     0          1          0      )

 cart.    s(32) = (  0.0000000  1.0000000  0.0000000 )
                  ( -1.0000000  0.0000000  0.0000000 )
                  (  0.0000000  0.0000000 -1.0000000 )


      isym = 33     inv. 180 deg rotation - cart. axis [1,0,1]   

 cryst.   s(33) = (     1          0          0      )
                  (    -1         -1         -1      )
                  (     0          0          1      )

 cart.    s(33) = (  0.0000000  0.0000000 -1.0000000 )
                  (  0.0000000  1.0000000  0.0000000 )
                  ( -1.0000000  0.0000000  0.0000000 )


      isym = 34     inv. 180 deg rotation - cart. axis [-1,0,1]  

 cryst.   s(34) = (     0          0          1      )
                  (     0          1          0      )
                  (     1          0          0      )

 cart.    s(34) = (  0.0000000  0.0000000  1.0000000 )
                  (  0.0000000  1.0000000  0.0000000 )
                  (  1.0000000  0.0000000  0.0000000 )


      isym = 35     inv.  90 deg rotation - cart. axis [0,1,0]   

 cryst.   s(35) = (    -1         -1         -1      )
                  (     1          0          0      )
                  (     0          1          0      )

 cart.    s(35) = (  0.0000000  0.0000000 -1.0000000 )
                  (  0.0000000 -1.0000000  0.0000000 )
                  (  1.0000000  0.0000000  0.0000000 )


      isym = 36     inv.  90 deg rotation - cart. axis [0,-1,0]  

 cryst.   s(36) = (     0          1          0      )
                  (     0          0          1      )
                  (    -1         -1         -1      )

 cart.    s(36) = (  0.0000000  0.0000000  1.0000000 )
                  (  0.0000000 -1.0000000  0.0000000 )
                  ( -1.0000000  0.0000000  0.0000000 )


      isym = 37     inv. 180 deg rotation - cart. axis [0,1,1]   

 cryst.   s(37) = (    -1         -1         -1      )
                  (     0          1          0      )
                  (     0          0          1      )

 cart.    s(37) = (  1.0000000  0.0000000  0.0000000 )
                  (  0.0000000  0.0000000 -1.0000000 )
                  (  0.0000000 -1.0000000  0.0000000 )


      isym = 38     inv. 180 deg rotation - cart. axis [0,1,-1]  

 cryst.   s(38) = (     1          0          0      )
                  (     0          0          1      )
                  (     0          1          0      )

 cart.    s(38) = (  1.0000000  0.0000000  0.0000000 )
                  (  0.0000000  0.0000000  1.0000000 )
                  (  0.0000000  1.0000000  0.0000000 )


      isym = 39     inv.  90 deg rotation - cart. axis [-1,0,0]  

 cryst.   s(39) = (     0          1          0      )
                  (    -1         -1         -1      )
                  (     1          0          0      )

 cart.    s(39) = ( -1.0000000  0.0000000  0.0000000 )
                  (  0.0000000  0.0000000 -1.0000000 )
                  (  0.0000000  1.0000000  0.0000000 )


      isym = 40     inv.  90 deg rotation - cart. axis [1,0,0]   

 cryst.   s(40) = (     0          0          1      )
                  (     1          0          0      )
                  (    -1         -1         -1      )

 cart.    s(40) = ( -1.0000000  0.0000000  0.0000000 )
                  (  0.0000000  0.0000000  1.0000000 )
                  (  0.0000000 -1.0000000  0.0000000 )


      isym = 41     inv. 120 deg rotation - cart. axis [-1,-1,-1]

 cryst.   s(41) = (     0          0         -1      )
                  (    -1          0          0      )
                  (     0         -1          0      )

 cart.    s(41) = (  0.0000000 -1.0000000  0.0000000 )
                  (  0.0000000  0.0000000 -1.0000000 )
                  ( -1.0000000  0.0000000  0.0000000 )


      isym = 42     inv. 120 deg rotation - cart. axis [-1,1,1]  

 cryst.   s(42) = (    -1          0          0      )
                  (     0          0         -1      )
                  (     1          1          1      )

 cart.    s(42) = (  0.0000000  1.0000000  0.0000000 )
                  (  0.0000000  0.0000000 -1.0000000 )
                  (  1.0000000  0.0000000  0.0000000 )


      isym = 43     inv. 120 deg rotation - cart. axis [1,1,-1]  

 cryst.   s(43) = (     0         -1          0      )
                  (     1          1          1      )
                  (     0          0         -1      )

 cart.    s(43) = (  0.0000000 -1.0000000  0.0000000 )
                  (  0.0000000  0.0000000  1.0000000 )
                  (  1.0000000  0.0000000  0.0000000 )


      isym = 44     inv. 120 deg rotation - cart. axis [1,-1,1]  

 cryst.   s(44) = (     1          1          1      )
                  (     0         -1          0      )
                  (    -1          0          0      )

 cart.    s(44) = (  0.0000000  1.0000000  0.0000000 )
                  (  0.0000000  0.0000000  1.0000000 )
                  ( -1.0000000  0.0000000  0.0000000 )


      isym = 45     inv. 120 deg rotation - cart. axis [1,1,1]   

 cryst.   s(45) = (     0         -1          0      )
                  (     0          0         -1      )
                  (    -1          0          0      )

 cart.    s(45) = (  0.0000000  0.0000000 -1.0000000 )
                  ( -1.0000000  0.0000000  0.0000000 )
                  (  0.0000000 -1.0000000  0.0000000 )


      isym = 46     inv. 120 deg rotation - cart. axis [-1,1,-1] 

 cryst.   s(46) = (     0          0         -1      )
                  (     0         -1          0      )
                  (     1          1          1      )

 cart.    s(46) = (  0.0000000  0.0000000 -1.0000000 )
                  (  1.0000000  0.0000000  0.0000000 )
                  (  0.0000000  1.0000000  0.0000000 )


      isym = 47     inv. 120 deg rotation - cart. axis [1,-1,-1] 

 cryst.   s(47) = (    -1          0          0      )
                  (     1          1          1      )
                  (     0         -1          0      )

 cart.    s(47) = (  0.0000000  0.0000000  1.0000000 )
                  (  1.0000000  0.0000000  0.0000000 )
                  (  0.0000000 -1.0000000  0.0000000 )


      isym = 48     inv. 120 deg rotation - cart. axis [-1,-1,1] 

 cryst.   s(48) = (     1          1          1      )
                  (    -1          0          0      )
                  (     0          0         -1      )

 cart.    s(48) = (  0.0000000  0.0000000  1.0000000 )
                  ( -1.0000000  0.0000000  0.0000000 )
                  (  0.0000000  1.0000000  0.0000000 )


   Cartesian axes

     site n.     atom                  positions (alat units)
         1           Cl  tau(   1) = (   0.0000000   0.0000000   0.0000000  )

   Crystallographic axes

     site n.     atom                  positions (cryst. coord.)
         1           Cl  tau(   1) = (  0.0000000  0.0000000  0.0000000  )

     number of k points=    50  gaussian smearing, width (Ry)=  0.0010
                       cart. coord. in units 2pi/alat
        k(    1) = (   0.0000000   0.0000000   0.0000000), wk =   0.0400000
        k(    2) = (   0.0000000   0.0618590   0.0000000), wk =   0.0400000
        k(    3) = (   0.0000000   0.1237179   0.0000000), wk =   0.0400000
        k(    4) = (   0.0000000   0.1855769   0.0000000), wk =   0.0400000
        k(    5) = (   0.0000000   0.2474358   0.0000000), wk =   0.0400000
        k(    6) = (   0.0000000   0.3092948   0.0000000), wk =   0.0400000
        k(    7) = (   0.0000000   0.3711537   0.0000000), wk =   0.0400000
        k(    8) = (   0.0000000   0.4330127   0.0000000), wk =   0.0400000
        k(    9) = (   0.0000000   0.4948717   0.0000000), wk =   0.0400000
        k(   10) = (   0.0000000   0.5567306   0.0000000), wk =   0.0400000
        k(   11) = (   0.0000000   0.6185896   0.0000000), wk =   0.0400000
        k(   12) = (   0.0000000   0.6804485   0.0000000), wk =   0.0400000
        k(   13) = (   0.0000000   0.7423075   0.0000000), wk =   0.0400000
        k(   14) = (   0.0000000   0.8041664   0.0000000), wk =   0.0400000
        k(   15) = (   0.0000000   0.8660254   0.0000000), wk =   0.0400000
        k(   16) = (   0.0433013   0.8227241   0.0000000), wk =   0.0400000
        k(   17) = (   0.0866025   0.7794229   0.0000000), wk =   0.0400000
        k(   18) = (   0.1299038   0.7361216   0.0000000), wk =   0.0400000
        k(   19) = (   0.1732051   0.6928203   0.0000000), wk =   0.0400000
        k(   20) = (   0.2165064   0.6495191   0.0000000), wk =   0.0400000
        k(   21) = (   0.2598076   0.6062178   0.0000000), wk =   0.0400000
        k(   22) = (   0.3031089   0.5629165   0.0000000), wk =   0.0400000
        k(   23) = (   0.3464102   0.5196152   0.0000000), wk =   0.0400000
        k(   24) = (   0.3897114   0.4763140   0.0000000), wk =   0.0400000
        k(   25) = (   0.4330127   0.4330127   0.0000000), wk =   0.0400000
        k(   26) = (   0.3936479   0.3936479   0.0000000), wk =   0.0400000
        k(   27) = (   0.3542831   0.3542831   0.0000000), wk =   0.0400000
        k(   28) = (   0.3149183   0.3149183   0.0000000), wk =   0.0400000
        k(   29) = (   0.2755535   0.2755535   0.0000000), wk =   0.0400000
        k(   30) = (   0.2361887   0.2361887   0.0000000), wk =   0.0400000
        k(   31) = (   0.1968240   0.1968240   0.0000000), wk =   0.0400000
        k(   32) = (   0.1574592   0.1574592   0.0000000), wk =   0.0400000
        k(   33) = (   0.1180944   0.1180944   0.0000000), wk =   0.0400000
        k(   34) = (   0.0787296   0.0787296   0.0000000), wk =   0.0400000
        k(   35) = (   0.0393648   0.0393648   0.0000000), wk =   0.0400000
        k(   36) = (   0.0000000   0.0000000   0.0000000), wk =   0.0400000
        k(   37) = (   0.0309295   0.0309295   0.0309295), wk =   0.0400000
        k(   38) = (   0.0618590   0.0618590   0.0618590), wk =   0.0400000
        k(   39) = (   0.0927884   0.0927884   0.0927884), wk =   0.0400000
        k(   40) = (   0.1237179   0.1237179   0.1237179), wk =   0.0400000
        k(   41) = (   0.1546474   0.1546474   0.1546474), wk =   0.0400000
        k(   42) = (   0.1855769   0.1855769   0.1855769), wk =   0.0400000
        k(   43) = (   0.2165064   0.2165064   0.2165064), wk =   0.0400000
        k(   44) = (   0.2474358   0.2474358   0.2474358), wk =   0.0400000
        k(   45) = (   0.2783653   0.2783653   0.2783653), wk =   0.0400000
        k(   46) = (   0.3092948   0.3092948   0.3092948), wk =   0.0400000
        k(   47) = (   0.3402243   0.3402243   0.3402243), wk =   0.0400000
        k(   48) = (   0.3711537   0.3711537   0.3711537), wk =   0.0400000
        k(   49) = (   0.4020832   0.4020832   0.4020832), wk =   0.0400000
        k(   50) = (   0.4330127   0.4330127   0.4330127), wk =   0.0400000

                       cryst. coord.
        k(    1) = (   0.0000000   0.0000000   0.0000000), wk =   0.0400000
        k(    2) = (   0.0357143  -0.0357143   0.0357143), wk =   0.0400000
        k(    3) = (   0.0714286  -0.0714286   0.0714286), wk =   0.0400000
        k(    4) = (   0.1071429  -0.1071429   0.1071429), wk =   0.0400000
        k(    5) = (   0.1428571  -0.1428571   0.1428571), wk =   0.0400000
        k(    6) = (   0.1785714  -0.1785714   0.1785714), wk =   0.0400000
        k(    7) = (   0.2142857  -0.2142857   0.2142857), wk =   0.0400000
        k(    8) = (   0.2500000  -0.2500000   0.2500000), wk =   0.0400000
        k(    9) = (   0.2857143  -0.2857143   0.2857143), wk =   0.0400000
        k(   10) = (   0.3214286  -0.3214286   0.3214286), wk =   0.0400000
        k(   11) = (   0.3571429  -0.3571429   0.3571429), wk =   0.0400000
        k(   12) = (   0.3928571  -0.3928571   0.3928571), wk =   0.0400000
        k(   13) = (   0.4285714  -0.4285714   0.4285714), wk =   0.0400000
        k(   14) = (   0.4642857  -0.4642857   0.4642857), wk =   0.0400000
        k(   15) = (   0.5000000  -0.5000000   0.5000000), wk =   0.0400000
        k(   16) = (   0.4500000  -0.4500000   0.5000000), wk =   0.0400000
        k(   17) = (   0.4000000  -0.4000000   0.5000000), wk =   0.0400000
        k(   18) = (   0.3500000  -0.3500000   0.5000000), wk =   0.0400000
        k(   19) = (   0.3000000  -0.3000000   0.5000000), wk =   0.0400000
        k(   20) = (   0.2500000  -0.2500000   0.5000000), wk =   0.0400000
        k(   21) = (   0.2000000  -0.2000000   0.5000000), wk =   0.0400000
        k(   22) = (   0.1500000  -0.1500000   0.5000000), wk =   0.0400000
        k(   23) = (   0.1000000  -0.1000000   0.5000000), wk =   0.0400000
        k(   24) = (   0.0500000  -0.0500000   0.5000000), wk =   0.0400000
        k(   25) = (   0.0000000   0.0000000   0.5000000), wk =   0.0400000
        k(   26) = (   0.0000000   0.0000000   0.4545455), wk =   0.0400000
        k(   27) = (   0.0000000   0.0000000   0.4090909), wk =   0.0400000
        k(   28) = (   0.0000000   0.0000000   0.3636364), wk =   0.0400000
        k(   29) = (   0.0000000   0.0000000   0.3181818), wk =   0.0400000
        k(   30) = (   0.0000000   0.0000000   0.2727273), wk =   0.0400000
        k(   31) = (   0.0000000   0.0000000   0.2272727), wk =   0.0400000
        k(   32) = (   0.0000000   0.0000000   0.1818182), wk =   0.0400000
        k(   33) = (   0.0000000   0.0000000   0.1363636), wk =   0.0400000
        k(   34) = (   0.0000000   0.0000000   0.0909091), wk =   0.0400000
        k(   35) = (   0.0000000   0.0000000   0.0454545), wk =   0.0400000
        k(   36) = (   0.0000000   0.0000000   0.0000000), wk =   0.0400000
        k(   37) = (   0.0178571   0.0178571   0.0178571), wk =   0.0400000
        k(   38) = (   0.0357143   0.0357143   0.0357143), wk =   0.0400000
        k(   39) = (   0.0535714   0.0535714   0.0535714), wk =   0.0400000
        k(   40) = (   0.0714286   0.0714286   0.0714286), wk =   0.0400000
        k(   41) = (   0.0892857   0.0892857   0.0892857), wk =   0.0400000
        k(   42) = (   0.1071429   0.1071429   0.1071429), wk =   0.0400000
        k(   43) = (   0.1250000   0.1250000   0.1250000), wk =   0.0400000
        k(   44) = (   0.1428571   0.1428571   0.1428571), wk =   0.0400000
        k(   45) = (   0.1607143   0.1607143   0.1607143), wk =   0.0400000
        k(   46) = (   0.1785714   0.1785714   0.1785714), wk =   0.0400000
        k(   47) = (   0.1964286   0.1964286   0.1964286), wk =   0.0400000
        k(   48) = (   0.2142857   0.2142857   0.2142857), wk =   0.0400000
        k(   49) = (   0.2321429   0.2321429   0.2321429), wk =   0.0400000
        k(   50) = (   0.2500000   0.2500000   0.2500000), wk =   0.0400000

     Dense  grid:     6819 G-vectors     FFT dimensions: (  25,  25,  25)

     Smooth grid:     4921 G-vectors     FFT dimensions: (  24,  24,  24)

     Estimated max dynamical RAM per process >       6.53Mb

     The potential is recalculated from file :
     ./pwscf.save/charge-density.dat


     negative rho (up, down):  1.503E-02 0.000E+00
     Starting wfc are    4 randomized atomic wfcs +    4 random wfc

     Band Structure Calculation
     Davidson diagonalization with overlap

     Computing kpt #:     1
     total cpu time spent up to now is        0.7 secs

     Computing kpt #:     2
     total cpu time spent up to now is        0.8 secs

     Computing kpt #:     3
     total cpu time spent up to now is        1.0 secs

     Computing kpt #:     4
     total cpu time spent up to now is        1.2 secs

     Computing kpt #:     5
     total cpu time spent up to now is        1.3 secs

     Computing kpt #:     6
     total cpu time spent up to now is        1.4 secs

     Computing kpt #:     7
     total cpu time spent up to now is        1.6 secs

     Computing kpt #:     8
     total cpu time spent up to now is        1.7 secs

     Computing kpt #:     9
     total cpu time spent up to now is        1.8 secs

     Computing kpt #:    10
     total cpu time spent up to now is        2.0 secs

     Computing kpt #:    11
     total cpu time spent up to now is        2.1 secs

     Computing kpt #:    12
     total cpu time spent up to now is        2.3 secs

     Computing kpt #:    13
     total cpu time spent up to now is        2.4 secs

     Computing kpt #:    14
     total cpu time spent up to now is        2.6 secs

     Computing kpt #:    15
     total cpu time spent up to now is        2.8 secs

     Computing kpt #:    16
     total cpu time spent up to now is        3.0 secs

     Computing kpt #:    17
     total cpu time spent up to now is        3.2 secs

     Computing kpt #:    18
     total cpu time spent up to now is        3.3 secs

     Computing kpt #:    19
     total cpu time spent up to now is        3.5 secs

     Computing kpt #:    20
     total cpu time spent up to now is        3.6 secs

     Computing kpt #:    21
     total cpu time spent up to now is        3.7 secs

     Computing kpt #:    22
     total cpu time spent up to now is        3.9 secs

     Computing kpt #:    23
     total cpu time spent up to now is        4.0 secs

     Computing kpt #:    24
     total cpu time spent up to now is        4.1 secs

     Computing kpt #:    25
     total cpu time spent up to now is        4.3 secs

     Computing kpt #:    26
     total cpu time spent up to now is        4.5 secs

     Computing kpt #:    27
     total cpu time spent up to now is        4.7 secs

     Computing kpt #:    28
     total cpu time spent up to now is        4.9 secs

     Computing kpt #:    29
     total cpu time spent up to now is        5.1 secs

     Computing kpt #:    30
     total cpu time spent up to now is        5.3 secs

     Computing kpt #:    31
     total cpu time spent up to now is        5.5 secs

     Computing kpt #:    32
     total cpu time spent up to now is        5.7 secs

     Computing kpt #:    33
     total cpu time spent up to now is        5.8 secs

     Computing kpt #:    34
     total cpu time spent up to now is        6.0 secs

     Computing kpt #:    35
     total cpu time spent up to now is        6.1 secs

     Computing kpt #:    36
     total cpu time spent up to now is        6.2 secs

     Computing kpt #:    37
     total cpu time spent up to now is        6.4 secs

     Computing kpt #:    38
     total cpu time spent up to now is        6.5 secs

     Computing kpt #:    39
     total cpu time spent up to now is        6.7 secs

     Computing kpt #:    40
     total cpu time spent up to now is        6.8 secs

     Computing kpt #:    41
     total cpu time spent up to now is        7.0 secs

     Computing kpt #:    42
     total cpu time spent up to now is        7.1 secs

     Computing kpt #:    43
     total cpu time spent up to now is        7.3 secs

     Computing kpt #:    44
     total cpu time spent up to now is        7.4 secs

     Computing kpt #:    45
     total cpu time spent up to now is        7.6 secs

     Computing kpt #:    46
     total cpu time spent up to now is        7.7 secs

     Computing kpt #:    47
     total cpu time spent up to now is        7.9 secs

     Computing kpt #:    48
     total cpu time spent up to now is        8.0 secs

     Computing kpt #:    49
     total cpu time spent up to now is        8.1 secs

     Computing kpt #:    50
     total cpu time spent up to now is        8.3 secs

     ethr =  1.43E-09,  avg # of iterations = 19.0

     total cpu time spent up to now is        8.3 secs

     End of band structure calculation

          k = 0.0000 0.0000 0.0000 (   627 PWs)   bands (ev):

   -12.1636   3.8757   3.8757   3.8757  12.9763  16.9157  16.9157  16.9157

          k = 0.0000 0.0619 0.0000 (   615 PWs)   bands (ev):

   -12.1302   3.7486   3.8322   3.8322  13.1372  16.8883  16.8883  16.9667

          k = 0.0000 0.1237 0.0000 (   615 PWs)   bands (ev):

   -12.0314   3.4021   3.7042   3.7042  13.5761  16.8306  16.8306  17.1191

          k = 0.0000 0.1856 0.0000 (   615 PWs)   bands (ev):

   -11.8710   2.9156   3.4991   3.4991  14.1882  16.7977  16.7977  17.3715

          k = 0.0000 0.2474 0.0000 (   607 PWs)   bands (ev):

   -11.6553   2.3713   3.2294   3.2294  14.8492  16.4862  16.8437  16.8437

          k = 0.0000 0.3093 0.0000 (   611 PWs)   bands (ev):

   -11.3937   1.8341   2.9118   2.9118  15.4329  15.4983  17.0055  17.0055

          k = 0.0000 0.3712 0.0000 (   611 PWs)   bands (ev):

   -11.0989   1.3511   2.5657   2.5657  14.5811  15.8033  17.3021  17.3021

          k = 0.0000 0.4330 0.0000 (   611 PWs)   bands (ev):

   -10.7863   0.9554   2.2111   2.2111  13.7524  15.8085  17.7389  17.7389

          k = 0.0000 0.4949 0.0000 (   615 PWs)   bands (ev):

   -10.4738   0.6692   1.8668   1.8668  13.0227  15.3548  18.3134  18.3134

          k = 0.0000 0.5567 0.0000 (   619 PWs)   bands (ev):

   -10.1803   0.5034   1.5492   1.5492  12.3982  14.5228  19.0184  19.0184

          k = 0.0000 0.6186 0.0000 (   622 PWs)   bands (ev):

    -9.9230   0.4550   1.2722   1.2722  11.8832  13.5158  19.8431  19.8431

          k = 0.0000 0.6804 0.0000 (   622 PWs)   bands (ev):

    -9.7152   0.5026   1.0463   1.0463  11.4803  12.5266  20.7715  20.7715

          k = 0.0000 0.7423 0.0000 (   630 PWs)   bands (ev):

    -9.5647   0.6043   0.8795   0.8795  11.1915  11.7015  21.7737  21.7737

          k = 0.0000 0.8042 0.0000 (   614 PWs)   bands (ev):

    -9.4744   0.7025   0.7773   0.7773  11.0178  11.1527  22.7601  22.7601

          k = 0.0000 0.8660 0.0000 (   610 PWs)   bands (ev):

    -9.4443   0.7429   0.7429   0.7429  10.9598  10.9598  23.3090  23.3090

          k = 0.0433 0.8227 0.0000 (   616 PWs)   bands (ev):

    -9.4734   0.6769   0.7766   0.8020  11.0498  11.1164  22.6289  22.7414

          k = 0.0866 0.7794 0.0000 (   622 PWs)   bands (ev):

    -9.5562   0.4935   0.8760   0.9746  11.3129  11.5706  21.3635  21.6195

          k = 0.1299 0.7361 0.0000 (   632 PWs)   bands (ev):

    -9.6815   0.2284   1.0364   1.2486  11.7250  12.2835  20.0055  20.4012

          k = 0.1732 0.6928 0.0000 (   624 PWs)   bands (ev):

    -9.8331  -0.0765   1.2489   1.6054  12.2336  13.2073  18.6806  19.2693

          k = 0.2165 0.6495 0.0000 (   620 PWs)   bands (ev):

    -9.9941  -0.3841   1.5003   2.0215  12.7296  14.2970  17.4486  18.3879

          k = 0.2598 0.6062 0.0000 (   612 PWs)   bands (ev):

   -10.1482  -0.6662   1.7711   2.4676  13.0219  15.5128  16.3534  17.9795

          k = 0.3031 0.5629 0.0000 (   616 PWs)   bands (ev):

   -10.2820  -0.9027   2.0356   2.9060  12.9574  15.4359  16.8200  18.2160

          k = 0.3464 0.5196 0.0000 (   612 PWs)   bands (ev):

   -10.3850  -1.0799   2.2620   3.2877  12.6533  14.7375  18.1861  18.9800

          k = 0.3897 0.4763 0.0000 (   612 PWs)   bands (ev):

   -10.4497  -1.1894   2.4164   3.5538  12.3586  14.2977  19.5758  19.9374

          k = 0.4330 0.4330 0.0000 (   614 PWs)   bands (ev):

   -10.4717  -1.2264   2.4714   3.6503  12.2418  14.1472  20.4713  20.7858

          k = 0.3936 0.3936 0.0000 (   618 PWs)   bands (ev):

   -10.5171  -1.1312   2.4951   3.6551  12.2999  14.1860  20.1684  20.8947

          k = 0.3543 0.3543 0.0000 (   618 PWs)   bands (ev):

   -10.6454  -0.8550   2.5650   3.6691  12.4721  14.3016  19.6314  20.7063

          k = 0.3149 0.3149 0.0000 (   614 PWs)   bands (ev):

   -10.8368  -0.4221   2.6779   3.6911  12.7512  14.4913  19.0018  20.3514

          k = 0.2756 0.2756 0.0000 (   614 PWs)   bands (ev):

   -11.0659   0.1342   2.8281   3.7190  13.1206  14.7501  18.3161  20.0398

          k = 0.2362 0.2362 0.0000 (   617 PWs)   bands (ev):

   -11.3080   0.7769   3.0073   3.7504  13.5426  15.0700  17.6127  19.6764

          k = 0.1968 0.1968 0.0000 (   617 PWs)   bands (ev):

   -11.5422   1.4676   3.2041   3.7825  13.9265  15.4382  16.9826  19.2651

          k = 0.1575 0.1575 0.0000 (   617 PWs)   bands (ev):

   -11.7525   2.1642   3.4038   3.8128  14.0802  15.8350  16.6157  18.5541

          k = 0.1181 0.1181 0.0000 (   621 PWs)   bands (ev):

   -11.9267   2.8176   3.5891   3.8389  13.8574  16.2299  16.6292  17.8636

          k = 0.0787 0.0787 0.0000 (   617 PWs)   bands (ev):

   -12.0566   3.3671   3.7408   3.8589  13.4474  16.5789  16.7904  17.3461

          k = 0.0394 0.0394 0.0000 (   617 PWs)   bands (ev):

   -12.1366   3.7416   3.8407   3.8715  13.1059  16.8256  16.8894  17.0248

          k = 0.0000 0.0000 0.0000 (   627 PWs)   bands (ev):

   -12.1636   3.8757   3.8757   3.8757  12.9763  16.9157  16.9157  16.9157

          k = 0.0309 0.0309 0.0309 (   618 PWs)   bands (ev):

   -12.1386   3.7425   3.8620   3.8620  13.0963  16.8504  16.8504  17.0388

          k = 0.0619 0.0619 0.0619 (   615 PWs)   bands (ev):

   -12.0645   3.3754   3.8194   3.8194  13.4173  16.6484  16.6484  17.4131

          k = 0.0928 0.0928 0.0928 (   615 PWs)   bands (ev):

   -11.9441   2.8495   3.7435   3.7435  13.8548  16.3216  16.3216  18.0444

          k = 0.1237 0.1237 0.1237 (   615 PWs)   bands (ev):

   -11.7822   2.2444   3.6287   3.6287  14.3361  15.9316  15.9316  18.9182

          k = 0.1546 0.1546 0.1546 (   616 PWs)   bands (ev):

   -11.5861   1.6253   3.4692   3.4692  14.8264  15.5598  15.5598  19.4558

          k = 0.1856 0.1856 0.1856 (   616 PWs)   bands (ev):

   -11.3654   1.0418   3.2618   3.2618  15.2684  15.2684  15.3180  19.6860

          k = 0.2165 0.2165 0.2165 (   610 PWs)   bands (ev):

   -11.1324   0.5324   3.0076   3.0076  15.0920  15.0920  15.8090  19.9710

          k = 0.2474 0.2474 0.2474 (   622 PWs)   bands (ev):

   -10.9019   0.1279   2.7125   2.7125  15.0431  15.0431  16.2913  20.2843

          k = 0.2784 0.2784 0.2784 (   619 PWs)   bands (ev):

   -10.6896  -0.1462   2.3873   2.3873  15.1187  15.1187  16.7427  20.5996

          k = 0.3093 0.3093 0.3093 (   619 PWs)   bands (ev):

   -10.5104  -0.2705   2.0454   2.0454  15.3047  15.3047  17.1217  20.8901

          k = 0.3402 0.3402 0.3402 (   613 PWs)   bands (ev):

   -10.3747  -0.2338   1.7010   1.7010  15.5792  15.5792  17.3634  21.1319

          k = 0.3712 0.3712 0.3712 (   619 PWs)   bands (ev):

   -10.2865  -0.0363   1.3676   1.3676  15.9134  15.9134  17.3871  21.3085

          k = 0.4021 0.4021 0.4021 (   607 PWs)   bands (ev):

   -10.2415   0.3095   1.0569   1.0569  16.2720  16.2720  17.1325  21.4141

          k = 0.4330 0.4330 0.4330 (   604 PWs)   bands (ev):

   -10.2295   0.7785   0.7785   0.7785  16.6118  16.6118  16.6118  21.4491

     Writing output data file pwscf.save

     init_run     :      0.53s CPU      0.42s WALL (       1 calls)
     electrons    :     15.80s CPU      7.70s WALL (       1 calls)

     Called by init_run:
     wfcinit      :      0.00s CPU      0.00s WALL (       1 calls)
     wfcinit:atom :      0.00s CPU      0.01s WALL (      50 calls)
     wfcinit:wfcr :      0.86s CPU      0.46s WALL (      50 calls)
     potinit      :      0.02s CPU      0.02s WALL (       1 calls)

     Called by electrons:
     c_bands      :     15.80s CPU      7.69s WALL (       1 calls)
     v_of_rho     :      0.02s CPU      0.01s WALL (       1 calls)
     v_h          :      0.00s CPU      0.00s WALL (       1 calls)
     v_xc         :      0.02s CPU      0.01s WALL (       1 calls)
     newd         :      0.03s CPU      0.04s WALL (       1 calls)

     Called by c_bands:
     init_us_2    :      0.03s CPU      0.03s WALL (      50 calls)
     cegterg      :     14.75s CPU      7.07s WALL (      64 calls)

     Called by sum_band:

     Called by *egterg:
     h_psi        :     12.42s CPU      5.81s WALL (    1066 calls)
     s_psi        :      0.28s CPU      0.11s WALL (    1066 calls)
     g_psi        :      0.09s CPU      0.04s WALL (     952 calls)
     cdiaghg      :      1.50s CPU      0.93s WALL (    1002 calls)
     cegterg:over :      0.52s CPU      0.22s WALL (     952 calls)
     cegterg:upda :      0.45s CPU      0.19s WALL (     952 calls)
     cegterg:last :      0.14s CPU      0.11s WALL (     219 calls)

     Called by h_psi:
     h_psi:pot    :     12.39s CPU      5.77s WALL (    1066 calls)
     h_psi:calbec :      0.19s CPU      0.13s WALL (    1066 calls)
     vloc_psi     :     11.94s CPU      5.49s WALL (    1066 calls)
     add_vuspsi   :      0.27s CPU      0.12s WALL (    1066 calls)

     General routines
     calbec       :      0.19s CPU      0.12s WALL (    1066 calls)
     fft          :      0.00s CPU      0.01s WALL (      13 calls)
     ffts         :      0.00s CPU      0.01s WALL (       1 calls)
     fftw         :     11.06s CPU      5.06s WALL (   10620 calls)
     interpolate  :      0.00s CPU      0.01s WALL (       1 calls)
     davcio       :      0.00s CPU      0.00s WALL (      50 calls)

     Parallel routines
     fft_scatter  :      0.48s CPU      0.25s WALL (   10634 calls)

     PWSCF        :    16.70s CPU         8.54s WALL


   This run was terminated on:  12:14:18  25Feb2021            

=------------------------------------------------------------------------------=
   JOB DONE.
=------------------------------------------------------------------------------=
