element =  In
struct =  tetragonal
nbands =  -4
path =  GXMGZRAZ,XR,MA
kpts =  (8,8,8)

  ___ ___ ___ _ _ _  
 |   |   |_  | | | | 
 | | | | | . | | | | 
 |__ |  _|___|_____|  1.3.1b1
 |___|_|             

User:   inukai@DESKTOP-12SE80T
Date:   Sun Feb 14 09:19:47 2021
Arch:   x86_64
Pid:    12468
Python: 3.6.9
gpaw:   /usr/lib/python3/dist-packages/gpaw
_gpaw:  /usr/lib/python3/dist-packages/_gpaw.cpython-36m-x86_64-linux-gnu.so
ase:    /home/inukai/hotcent/ase-3.19.3/ase (version 3.19.3)
numpy:  /home/inukai/.local/lib/python3.6/site-packages/numpy (version 1.19.5)
scipy:  /home/inukai/.local/lib/python3.6/site-packages/scipy (version 1.5.4)
units:  Angstrom and eV
cores:  1

Input parameters:
  kpts: [8 8 8]
  maxiter: 1500
  mixer: {backend: pulay,
          beta: 0.05,
          method: separate,
          nmaxold: 5,
          weight: 50}
  mode: {ecut: 400.0,
         name: pw}
  occupations: {name: fermi-dirac,
                width: 0.02}
  spinpol: True
  xc: PBE

System changes: positions, numbers, cell, pbc, initial_charges, initial_magmoms 

Initialize ...

In-setup:
  name: Indium
  id: 4115a36869ad701825fde81bee9eb9d4
  Z: 49
  valence: 13
  core: 36
  charge: 0.0
  file: /usr/share/gpaw-setups/In.PBE.gz
  cutoffs: 1.14(comp), 2.09(filt), 2.48(core), lmax=2
  valence states:
                energy  radius
    5s(2.00)    -8.203   1.185
    5p(1.00)    -2.521   1.244
    4d(10.00)   -18.629   1.148
    *s          19.008   1.185
    *p          24.691   1.244
    *d           8.583   1.148

  Using partial waves for In as LCAO basis

Reference energy: -319950.839320

Spin-polarized calculation.
Magnetic moment:  0.000000

Occupation numbers:
  Fermi-Dirac: width=0.0200 eV

Convergence criteria:
  Maximum total energy change: 0.0005 eV / electron
  Maximum integral of absolute density change: 0.0001 electrons
  Maximum integral of absolute eigenstate change: 4e-08 eV^2
  Maximum number of iterations: 1500

Symmetries present (total): 16

  ( 1  0  0)  ( 1  0  0)  ( 1  0  0)  ( 1  0  0)  ( 0  1  0)  ( 0  1  0)
  ( 0  1  0)  ( 0  1  0)  ( 0 -1  0)  ( 0 -1  0)  ( 1  0  0)  ( 1  0  0)
  ( 0  0  1)  ( 0  0 -1)  ( 0  0  1)  ( 0  0 -1)  ( 0  0  1)  ( 0  0 -1)

  ( 0  1  0)  ( 0  1  0)  ( 0 -1  0)  ( 0 -1  0)  ( 0 -1  0)  ( 0 -1  0)
  (-1  0  0)  (-1  0  0)  ( 1  0  0)  ( 1  0  0)  (-1  0  0)  (-1  0  0)
  ( 0  0  1)  ( 0  0 -1)  ( 0  0  1)  ( 0  0 -1)  ( 0  0  1)  ( 0  0 -1)

  (-1  0  0)  (-1  0  0)  (-1  0  0)  (-1  0  0)
  ( 0  1  0)  ( 0  1  0)  ( 0 -1  0)  ( 0 -1  0)
  ( 0  0  1)  ( 0  0 -1)  ( 0  0  1)  ( 0  0 -1)

512 k-points: 8 x 8 x 8 Monkhorst-Pack grid
40 k-points in the irreducible part of the Brillouin zone
       k-points in crystal coordinates                weights
   0:     0.06250000    0.06250000    0.06250000          8/512
   1:     0.06250000    0.06250000    0.18750000          8/512
   2:     0.06250000    0.06250000    0.31250000          8/512
   3:     0.06250000    0.06250000    0.43750000          8/512
   4:     0.18750000    0.06250000    0.06250000         16/512
   5:     0.18750000    0.06250000    0.18750000         16/512
   6:     0.18750000    0.06250000    0.31250000         16/512
   7:     0.18750000    0.06250000    0.43750000         16/512
   8:     0.18750000    0.18750000    0.06250000          8/512
   9:     0.18750000    0.18750000    0.18750000          8/512
          ...
  39:     0.43750000    0.43750000    0.43750000          8/512

Wave functions: Plane wave expansion
  Cutoff energy: 400.000 eV
  Number of coefficients (min, max): 992, 1012
  Using FFTW library
  Eigensolver: None  MatrixOperator buffer_size: default value or 
                              see value of nblock in input file
Diagonalizer layout: Serial LAPACKOrthonormalizer layout: Serial LAPACK 

Davidson(niter=1, smin=None, normalize=True) 

Densities:
  Coarse grid: 15*15*24 grid
  Fine grid: 30*30*48 grid
  Total Charge: 0.000000 

Density mixing:
  Method: separate
  Backend: pulay
  Linear mixing parameter: 0.05
  Mixing with 5 old densities
  Damping of long wave oscillations: 50 

Hamiltonian:
  XC and Coulomb potentials evaluated on a 30*30*48 grid
  Using the PBE Exchange-Correlation functional
 

Memory estimate:
  Process memory now: 930.43 MiB
  Calculator: 33.33 MiB
    Density: 3.28 MiB
      Arrays: 1.44 MiB
      Localized functions: 1.01 MiB
      Mixer: 0.82 MiB
    Hamiltonian: 1.09 MiB
      Arrays: 1.07 MiB
      XC: 0.00 MiB
      Poisson: 0.00 MiB
      vbar: 0.02 MiB
    Wavefunctions: 28.96 MiB
      Arrays psit_nG: 22.24 MiB
      Eigensolver: 0.41 MiB
      Projections: 0.79 MiB
      Projectors: 4.58 MiB
      Overlap op: 0.28 MiB
      PW-descriptor: 0.66 MiB

Total number of cores used: 1

Number of atoms: 2
Number of atomic orbitals: 18
Number of bands in calculation: 18
Bands to converge: occupied states only
Number of valence electrons: 26

... initialized

Initializing position-dependent things.

Density initialized from atomic densities
Creating initial wave functions:
  18 bands from LCAO basis set

   .-------.  
  /|       |  
 * |       |  
 | |       |  
 | |  In   |  
 | |       |  
 | .-------.  
 |/       /   
 In------*    

Positions:
   0 In     0.000000    0.000000    0.000000
   1 In     1.649204    1.649204    2.531279

Unit cell:
           periodic     x           y           z      points  spacing
  1. axis:    yes    3.298409    0.000000    0.000000    15     0.2199
  2. axis:    yes    0.000000    3.298409    0.000000    15     0.2199
  3. axis:    yes    0.000000    0.000000    5.062558    24     0.2109

  Lengths:   3.298409   3.298409   5.062558
  Angles:   90.000000  90.000000  90.000000

Effective grid spacing dv^(1/3) = 0.2169

                     log10-error:    total        iterations:
           time      wfs    density  energy       fermi  poisson  magmom
iter:   1  09:19:54  +1.01   +inf    -5.252450    2               -0.0000
iter:   2  09:19:57  -0.77   +inf    -5.275304    3               -0.0000
iter:   3  09:20:00  -1.60   +inf    -5.279207    2               +0.0000
iter:   4  09:20:04  -2.04  -1.58    -5.270334    3               -0.0000
iter:   5  09:20:08  -0.61  -1.61    -5.222473    5               -0.0000
iter:   6  09:20:12  -2.03  -2.25    -5.237250    4               -0.0000
iter:   7  09:20:17  -0.84  -2.32    -5.214289    4               +0.0000
iter:   8  09:20:21  -2.87  -2.74    -5.214109    3               +0.0000
iter:   9  09:20:25  -4.37  -3.37    -5.214129    2               -0.0000
iter:  10  09:20:29  -4.54  -3.40    -5.214126    2               +0.0000
iter:  11  09:20:33  -5.26  -3.41    -5.214126    2               +0.0000
iter:  12  09:20:37  -4.17  -3.42    -5.214136    2               +0.0000
iter:  13  09:20:41  -3.74  -3.25    -5.214141    2               -0.0000
iter:  14  09:20:45  -5.41  -3.51    -5.214152    2               +0.0000
iter:  15  09:20:49  -5.68  -3.85    -5.214151    2               -0.0000
iter:  16  09:20:53  -3.86  -3.89    -5.214159    2               +0.0000
iter:  17  09:20:57  -3.80  -3.51    -5.214153    2               -0.0000
iter:  18  09:21:01  -4.61  -3.93    -5.214148    2               +0.0000
iter:  19  09:21:05  -4.11  -3.78    -5.214166    2               +0.0000
iter:  20  09:21:09  -3.98  -3.71    -5.214146    2               -0.0000
iter:  21  09:21:13  -6.53  -5.12    -5.214146    2               -0.0000
iter:  22  09:21:17  -7.23  -5.30    -5.214146    2               -0.0000
iter:  23  09:21:21  -7.78  -5.41    -5.214146    2               -0.0000

Converged after 23 iterations.

Dipole moment: (-0.000000, 0.000000, -0.000000) |e|*Ang

Total magnetic moment: -0.000000
Local magnetic moments:
   0 In 0.000000
   1 In 0.000000

Energy contributions relative to reference atoms: (reference = -319950.839320)

Kinetic:        +23.965833
Potential:      -22.553262
External:        +0.000000
XC:              -7.320649
Entropy (-ST):   -0.002839
Local:           +0.695351
--------------------------
Free energy:     -5.215566
Extrapolated:    -5.214146

Spin contamination: 0.000000 electrons
Fermi level: 6.46320

Warning: Showing only first 2 kpts
                      Up                     Down
 Kpt  Band  Eigenvalues  Occupancy  Eigenvalues  Occupancy
  0    11      2.91896    0.01562      2.91896    0.01562
  0    12      4.59333    0.01562      4.59333    0.01562
  0    13     10.42307    0.00000     10.42307    0.00000
  0    14     10.48994    0.00000     10.48994    0.00000

  1    11      1.56214    0.01562      1.56214    0.01562
  1    12      6.29535    0.01562      6.29535    0.01562
  1    13     10.64624    0.00000     10.64624    0.00000
  1    14     10.72763    0.00000     10.72763    0.00000


Input parameters:
  convergence: {bands: all}
  eigensolver: {name: cg,
                niter: 5}
  fixdensity: True
  kpts: {npoints: 50,
         path: GXMGZRAZ,XR,MA}
  nbands: -4
  symmetry: off

Initialize ...

In-setup:
  name: Indium
  id: 4115a36869ad701825fde81bee9eb9d4
  Z: 49
  valence: 13
  core: 36
  charge: 0.0
  file: /usr/share/gpaw-setups/In.PBE.gz
  cutoffs: 1.14(comp), 2.09(filt), 2.48(core), lmax=2
  valence states:
                energy  radius
    5s(2.00)    -8.203   1.185
    5p(1.00)    -2.521   1.244
    4d(10.00)   -18.629   1.148
    *s          19.008   1.185
    *p          24.691   1.244
    *d           8.583   1.148

  Using partial waves for In as LCAO basis

Reference energy: -319950.839320

Spin-polarized calculation.
Magnetic moment:  0.000000

Occupation numbers:
  Fixed Fermi level
  Fermi-Dirac: width=0.0200 eV

Convergence criteria:
  Maximum total energy change: 0.0005 eV / electron
  Maximum integral of absolute density change: 0.0001 electrons
  Maximum integral of absolute eigenstate change: 4e-08 eV^2
  Maximum number of iterations: 1500

Symmetries present (total): 1

  ( 1  0  0)
  ( 0  1  0)
  ( 0  0  1)

50 k-points
50 k-points in the irreducible part of the Brillouin zone
       k-points in crystal coordinates                weights
   0:     0.00000000    0.00000000    0.00000000          1/50
   1:     0.00000000    0.10000000    0.00000000          1/50
   2:     0.00000000    0.20000000    0.00000000          1/50
   3:     0.00000000    0.30000000    0.00000000          1/50
   4:     0.00000000    0.40000000    0.00000000          1/50
   5:     0.00000000    0.50000000    0.00000000          1/50
   6:     0.10000000    0.50000000    0.00000000          1/50
   7:     0.20000000    0.50000000    0.00000000          1/50
   8:     0.30000000    0.50000000    0.00000000          1/50
   9:     0.40000000    0.50000000    0.00000000          1/50
          ...
  49:     0.50000000    0.50000000    0.50000000          1/50

Wave functions: Plane wave expansion
  Cutoff energy: 400.000 eV
  Number of coefficients (min, max): 984, 1024
  Using FFTW library
  Eigensolver: None  MatrixOperator buffer_size: default value or 
                              see value of nblock in input file
Diagonalizer layout: Serial LAPACKOrthonormalizer layout: Serial LAPACK 

CG(niter=5, rtol=3.0e-01) 

No density mixing

Memory estimate:
  Process memory now: 1035.46 MiB
  Calculator: 38.99 MiB
    Density: 3.28 MiB
      Arrays: 1.44 MiB
      Localized functions: 1.01 MiB
      Mixer: 0.82 MiB
    Hamiltonian: 1.09 MiB
      Arrays: 1.07 MiB
      XC: 0.00 MiB
      Poisson: 0.00 MiB
      vbar: 0.02 MiB
    Wavefunctions: 34.62 MiB
      Arrays psit_nG: 26.56 MiB
      Eigensolver: 0.34 MiB
      Projections: 0.93 MiB
      Projectors: 5.73 MiB
      Overlap op: 0.27 MiB
      PW-descriptor: 0.78 MiB

Total number of cores used: 1

Number of atoms: 2
Number of atomic orbitals: 18
Number of bands in calculation: 17
Bands to converge: all
Number of valence electrons: 26

... initialized

Initializing position-dependent things.

Creating initial wave functions:
  17 bands from LCAO basis set

   .-------.  
  /|       |  
 * |       |  
 | |       |  
 | |  In   |  
 | |       |  
 | .-------.  
 |/       /   
 In------*    

Positions:
   0 In     0.000000    0.000000    0.000000
   1 In     1.649204    1.649204    2.531279

Unit cell:
           periodic     x           y           z      points  spacing
  1. axis:    yes    3.298409    0.000000    0.000000    15     0.2199
  2. axis:    yes    0.000000    3.298409    0.000000    15     0.2199
  3. axis:    yes    0.000000    0.000000    5.062558    24     0.2109

  Lengths:   3.298409   3.298409   5.062558
  Angles:   90.000000  90.000000  90.000000

Effective grid spacing dv^(1/3) = 0.2169

                     log10-error:    total        iterations:
           time      wfs    density  energy       fermi  poisson  magmom
iter:   1  09:21:42  +0.78           -4.774953    6               -0.0000
iter:   2  09:22:03  -0.13           -4.799418    31              -0.0000
iter:   3  09:22:22  -1.14           -4.803406    29              -0.0000
iter:   4  09:22:43  -2.14           -4.803933    31              -0.0000
iter:   5  09:23:03  -3.12           -4.804007    31              -0.0000
iter:   6  09:23:24  -4.10           -4.804013    29              -0.0000
iter:   7  09:23:45  -5.01           -4.804014    30              -0.0000
iter:   8  09:24:00  -0.97           -4.804014    30              -0.0000
iter:   9  09:24:10  -1.07           -4.804014    30              -0.0000
iter:  10  09:24:15  -1.79           -4.804014    31              -0.0000
iter:  11  09:24:18  -2.69           -4.804014    31              -0.0000
iter:  12  09:24:20  -3.82           -4.804014    31              -0.0000
iter:  13  09:24:22  -4.83           -4.804014    31              -0.0000
iter:  14  09:24:24  -6.20           -4.804014    31              -0.0000
iter:  15  09:24:26  -7.18           -4.804014    31              -0.0000
iter:  16  09:24:28  -7.91           -4.804014    31              -0.0000

Converged after 16 iterations.

Dipole moment: (-0.000000, 0.000000, -0.000000) |e|*Ang

Total magnetic moment: -0.000000
Local magnetic moments:
   0 In 0.000000
   1 In 0.000000

Energy contributions relative to reference atoms: (reference = -319950.839320)

Kinetic:        +24.377216
Potential:      -22.553258
External:        +0.000000
XC:              -7.320645
Entropy (-ST):   -0.005354
Local:           +0.695350
--------------------------
Free energy:     -4.806691
Extrapolated:    -4.804014

Spin contamination: 0.000000 electrons
Fixed Fermi level: 6.46320

Warning: Showing only first 2 kpts
                      Up                     Down
 Kpt  Band  Eigenvalues  Occupancy  Eigenvalues  Occupancy
  0    11      3.36731    0.02000      3.36731    0.02000
  0    12      3.88392    0.02000      3.88392    0.02000
  0    13     11.08095    0.00000     11.08095    0.00000
  0    14     11.08095    0.00000     11.08095    0.00000

  1    11      3.46526    0.02000      3.46526    0.02000
  1    12      4.06295    0.02000      4.06295    0.02000
  1    13      9.58449    0.00000      9.58449    0.00000
  1    14     11.25381    0.00000     11.25381    0.00000


Timing:                              incl.     excl.
-----------------------------------------------------------
Hamiltonian:                         1.210     0.002   0.0% |
 Atomic:                             0.801     0.003   0.0% |
  XC Correction:                     0.798     0.798   0.3% |
 Calculate atomic Hamiltonians:      0.054     0.054   0.0% |
 Communicate:                        0.000     0.000   0.0% |
 Initialize Hamiltonian:             0.000     0.000   0.0% |
 Poisson:                            0.001     0.001   0.0% |
 XC 3D grid:                         0.353     0.353   0.1% |
LCAO initialization:                 5.308     0.114   0.0% |
 LCAO eigensolver:                   1.588     0.017   0.0% |
  Calculate projections:             0.011     0.011   0.0% |
  DenseAtomicCorrection:             0.047     0.047   0.0% |
  Distribute overlap matrix:         0.007     0.007   0.0% |
  Orbital Layouts:                   0.176     0.176   0.1% |
  Potential matrix:                  0.585     0.585   0.2% |
  Sum over cells:                    0.745     0.745   0.3% |
 LCAO to grid:                       2.937     2.937   1.0% |
 Set positions (LCAO WFS):           0.668     0.002   0.0% |
  Basic WFS set positions:           0.001     0.001   0.0% |
  Basis functions set positions:     0.000     0.000   0.0% |
  TCI: Calculate S, T, P:            0.665     0.665   0.2% |
PWDescriptor:                        0.044     0.044   0.0% |
Redistribute:                        0.000     0.000   0.0% |
SCF-cycle:                         273.082     6.603   2.3% ||
 CG:                               157.829   147.188  52.0% |--------------------|
  CG: orthonormalize:               10.641     5.408   1.9% ||
   CG: overlap:                      3.465     3.465   1.2% |
   CG: overlap2:                     1.769     1.769   0.6% |
 Davidson:                          50.729    26.168   9.2% |---|
  calc. matrices:                   17.836    17.836   6.3% |--|
  diagonalize:                       5.579     5.579   2.0% ||
  rotate_psi:                        1.145     1.145   0.4% |
 Density:                            7.608     0.001   0.0% |
  Atomic density matrices:           0.083     0.083   0.0% |
  Mix:                               0.707     0.707   0.2% |
  Multipole moments:                 0.003     0.003   0.0% |
  Pseudo density:                    6.814     6.570   2.3% ||
   Symmetrize density:               0.243     0.243   0.1% |
 Hamiltonian:                       11.922     0.019   0.0% |
  Atomic:                            8.357     0.029   0.0% |
   XC Correction:                    8.328     8.328   2.9% ||
  Calculate atomic Hamiltonians:     0.553     0.553   0.2% |
  Communicate:                       0.000     0.000   0.0% |
  Poisson:                           0.011     0.011   0.0% |
  XC 3D grid:                        2.982     2.982   1.1% |
 Orthonormalize:                     0.654     0.016   0.0% |
  Band Layouts:                      0.018     0.004   0.0% |
   Inverse Cholesky:                 0.014     0.014   0.0% |
  calc_s_matrix:                     0.072     0.072   0.0% |
  projections:                       0.493     0.493   0.2% |
  rotate_psi:                        0.055     0.055   0.0% |
 Residuals:                          5.031     5.031   1.8% ||
 Subspace diag:                     32.706     0.492   0.2% |
  Band Layouts:                      2.253     0.135   0.0% |
   Diagonalize:                      2.017     2.017   0.7% |
   Distribute results:               0.102     0.102   0.0% |
  calc_h_matrix:                    28.305    28.305  10.0% |---|
  rotate_psi:                        1.657     1.657   0.6% |
Set symmetry:                        0.052     0.052   0.0% |
Other:                               3.401     3.401   1.2% |
-----------------------------------------------------------
Total:                                       283.097 100.0%

Date: Sun Feb 14 09:24:30 2021
element =  In
struct =  tetragonal
kpts =  (8,8,8)
element =  In
configuration =  [Kr] 4d10 5s2 5p1
valence =  ['5s', '5p']
occupations =  {'5s': 2, '5p': 1}
nls =  5p
rNum =  600
lmax =  d
*******************************************
Starting confinement parameter optimization
Adjustable parameters and initial values:
  In_5p.r0 : 5.366822
  In_5s.r0 : 5.366822
  In_n.r0 : 8.050233
*******************************************

OPT_VAL: 5.366822197376877   5.366822197376877   8.050233296065315
VCONF:
  In_5p : PowerConfinement(r0=5.366822, s=2.000000)
  In_5s : PowerConfinement(r0=5.366822, s=2.000000)
  In_n : PowerConfinement(r0=8.050233, s=2.000000)
RESIDUAL: 0.0

OPT_VAL: 5.566822197376877   5.366822197376877   8.050233296065315
VCONF:
  In_5p : PowerConfinement(r0=5.566822, s=2.000000)
  In_5s : PowerConfinement(r0=5.366822, s=2.000000)
  In_n : PowerConfinement(r0=8.050233, s=2.000000)
RESIDUAL: 0.0

OPT_VAL: 5.366822197376877   5.566822197376877   8.050233296065315
VCONF:
  In_5p : PowerConfinement(r0=5.366822, s=2.000000)
  In_5s : PowerConfinement(r0=5.566822, s=2.000000)
  In_n : PowerConfinement(r0=8.050233, s=2.000000)
RESIDUAL: 0.0

OPT_VAL: 5.366822197376877   5.366822197376877   8.250233296065314
VCONF:
  In_5p : PowerConfinement(r0=5.366822, s=2.000000)
  In_5s : PowerConfinement(r0=5.366822, s=2.000000)
  In_n : PowerConfinement(r0=8.250233, s=2.000000)
RESIDUAL: 0.0

OPT_VAL: 5.391822197376877   5.366822197376877   8.050233296065315
VCONF:
  In_5p : PowerConfinement(r0=5.391822, s=2.000000)
  In_5s : PowerConfinement(r0=5.366822, s=2.000000)
  In_n : PowerConfinement(r0=8.050233, s=2.000000)
RESIDUAL: 0.0

OPT_VAL: 5.366822197376877   5.391822197376877   8.050233296065315
VCONF:
  In_5p : PowerConfinement(r0=5.366822, s=2.000000)
  In_5s : PowerConfinement(r0=5.391822, s=2.000000)
  In_n : PowerConfinement(r0=8.050233, s=2.000000)
RESIDUAL: 0.0

OPT_VAL: 5.366822197376877   5.366822197376877   8.075233296065315
VCONF:
  In_5p : PowerConfinement(r0=5.366822, s=2.000000)
  In_5s : PowerConfinement(r0=5.366822, s=2.000000)
  In_n : PowerConfinement(r0=8.075233, s=2.000000)
RESIDUAL: 0.0

OPT_VAL: 5.3718221973768765   5.366822197376877   8.050233296065315
VCONF:
  In_5p : PowerConfinement(r0=5.371822, s=2.000000)
  In_5s : PowerConfinement(r0=5.366822, s=2.000000)
  In_n : PowerConfinement(r0=8.050233, s=2.000000)
RESIDUAL: 0.0

OPT_VAL: 5.366822197376877   5.3718221973768765   8.050233296065315
VCONF:
  In_5p : PowerConfinement(r0=5.366822, s=2.000000)
  In_5s : PowerConfinement(r0=5.371822, s=2.000000)
  In_n : PowerConfinement(r0=8.050233, s=2.000000)
RESIDUAL: 0.0

OPT_VAL: 5.366822197376877   5.366822197376877   8.055233296065316
VCONF:
  In_5p : PowerConfinement(r0=5.366822, s=2.000000)
  In_5s : PowerConfinement(r0=5.366822, s=2.000000)
  In_n : PowerConfinement(r0=8.055233, s=2.000000)
RESIDUAL: 0.0

*******************************************
Optimization finished after 10 iterations
Adjustable parameters and final values:
  In_5p.r0 : 5.366822
  In_5s.r0 : 5.366822
  In_n.r0 : 8.050233
*******************************************

VCONF:
  In_5p : PowerConfinement(r0=5.366822, s=2.000000)
  In_5s : PowerConfinement(r0=5.366822, s=2.000000)
  In_n : PowerConfinement(r0=8.050233, s=2.000000)
