element =  Te
struct =  bcc
nbands =  -4
path =  GHNGP
kpts =  (8,8,8)
lattice constant a =  3.846
lattice constant b =  3.846
lattice constant c =  3.846
alpha angle =  90.0

  ___ ___ ___ _ _ _  
 |   |   |_  | | | | 
 | | | | | . | | | | 
 |__ |  _|___|_____|  1.3.1b1
 |___|_|             

User:   inukai@DESKTOP-12SE80T
Date:   Fri Feb 12 02:28:59 2021
Arch:   x86_64
Pid:    17784
Python: 3.6.9
gpaw:   /usr/lib/python3/dist-packages/gpaw
_gpaw:  /usr/lib/python3/dist-packages/_gpaw.cpython-36m-x86_64-linux-gnu.so
ase:    /home/inukai/hotcent/ase-3.19.3/ase (version 3.19.3)
numpy:  /home/inukai/.local/lib/python3.6/site-packages/numpy (version 1.19.5)
scipy:  /home/inukai/.local/lib/python3.6/site-packages/scipy (version 1.5.4)
units:  Angstrom and eV
cores:  1

Input parameters:
  kpts: [8 8 8]
  maxiter: 1500
  mixer: {backend: pulay,
          beta: 0.01,
          method: separate,
          nmaxold: 11,
          weight: 100.0}
  mode: {ecut: 400.0,
         name: pw}
  occupations: {name: fermi-dirac,
                width: 0.02}
  spinpol: True
  xc: PBE

System changes: positions, numbers, cell, pbc, initial_charges, initial_magmoms 

Initialize ...

Te-setup:
  name: Tellurium
  id: e44b9ef4772d7e5a1c6a47e6d6496588
  Z: 52
  valence: 6
  core: 46
  charge: 0.0
  file: /usr/share/gpaw-setups/Te.PBE.gz
  cutoffs: 1.14(comp), 2.09(filt), 3.17(core), lmax=2
  valence states:
                energy  radius
    5s(2.00)   -15.089   1.180
    5p(4.00)    -5.955   1.196
    *s          12.123   1.180
    *p          21.256   1.196
    *d           0.000   1.238

  Using partial waves for Te as LCAO basis

Reference energy: -184790.683434

Spin-polarized calculation.
Magnetic moment:  0.000000

Occupation numbers:
  Fermi-Dirac: width=0.0200 eV

Convergence criteria:
  Maximum total energy change: 0.0005 eV / electron
  Maximum integral of absolute density change: 0.0001 electrons
  Maximum integral of absolute eigenstate change: 4e-08 eV^2
  Maximum number of iterations: 1500

Symmetries present (total): 48

  ( 1  1  1)  ( 1  1  1)  ( 1  1  1)  ( 1  1  1)  ( 1  1  1)  ( 1  1  1)
  ( 0  0 -1)  ( 0  0 -1)  ( 0 -1  0)  ( 0 -1  0)  (-1  0  0)  (-1  0  0)
  ( 0 -1  0)  (-1  0  0)  ( 0  0 -1)  (-1  0  0)  ( 0  0 -1)  ( 0 -1  0)

  ( 1  0  0)  ( 1  0  0)  ( 1  0  0)  ( 1  0  0)  ( 1  0  0)  ( 1  0  0)
  ( 0  1  0)  ( 0  1  0)  ( 0  0  1)  ( 0  0  1)  (-1 -1 -1)  (-1 -1 -1)
  ( 0  0  1)  (-1 -1 -1)  ( 0  1  0)  (-1 -1 -1)  ( 0  1  0)  ( 0  0  1)

  ( 0  1  0)  ( 0  1  0)  ( 0  1  0)  ( 0  1  0)  ( 0  1  0)  ( 0  1  0)
  ( 1  0  0)  ( 1  0  0)  ( 0  0  1)  ( 0  0  1)  (-1 -1 -1)  (-1 -1 -1)
  ( 0  0  1)  (-1 -1 -1)  ( 1  0  0)  (-1 -1 -1)  ( 1  0  0)  ( 0  0  1)

  ( 0  0  1)  ( 0  0  1)  ( 0  0  1)  ( 0  0  1)  ( 0  0  1)  ( 0  0  1)
  ( 1  0  0)  ( 1  0  0)  ( 0  1  0)  ( 0  1  0)  (-1 -1 -1)  (-1 -1 -1)
  ( 0  1  0)  (-1 -1 -1)  ( 1  0  0)  (-1 -1 -1)  ( 1  0  0)  ( 0  1  0)

  ( 0  0 -1)  ( 0  0 -1)  ( 0  0 -1)  ( 0  0 -1)  ( 0  0 -1)  ( 0  0 -1)
  ( 1  1  1)  ( 1  1  1)  ( 0 -1  0)  ( 0 -1  0)  (-1  0  0)  (-1  0  0)
  ( 0 -1  0)  (-1  0  0)  ( 1  1  1)  (-1  0  0)  ( 1  1  1)  ( 0 -1  0)

  ( 0 -1  0)  ( 0 -1  0)  ( 0 -1  0)  ( 0 -1  0)  ( 0 -1  0)  ( 0 -1  0)
  ( 1  1  1)  ( 1  1  1)  ( 0  0 -1)  ( 0  0 -1)  (-1  0  0)  (-1  0  0)
  ( 0  0 -1)  (-1  0  0)  ( 1  1  1)  (-1  0  0)  ( 1  1  1)  ( 0  0 -1)

  (-1  0  0)  (-1  0  0)  (-1  0  0)  (-1  0  0)  (-1  0  0)  (-1  0  0)
  ( 1  1  1)  ( 1  1  1)  ( 0  0 -1)  ( 0  0 -1)  ( 0 -1  0)  ( 0 -1  0)
  ( 0  0 -1)  ( 0 -1  0)  ( 1  1  1)  ( 0 -1  0)  ( 1  1  1)  ( 0  0 -1)

  (-1 -1 -1)  (-1 -1 -1)  (-1 -1 -1)  (-1 -1 -1)  (-1 -1 -1)  (-1 -1 -1)
  ( 1  0  0)  ( 1  0  0)  ( 0  1  0)  ( 0  1  0)  ( 0  0  1)  ( 0  0  1)
  ( 0  1  0)  ( 0  0  1)  ( 1  0  0)  ( 0  0  1)  ( 1  0  0)  ( 0  1  0)

512 k-points: 8 x 8 x 8 Monkhorst-Pack grid
26 k-points in the irreducible part of the Brillouin zone
       k-points in crystal coordinates                weights
   0:     0.06250000    0.06250000   -0.06250000          6/512
   1:     0.18750000   -0.06250000   -0.06250000          8/512
   2:     0.18750000    0.06250000   -0.06250000         24/512
   3:     0.18750000    0.18750000   -0.18750000          6/512
   4:     0.31250000   -0.06250000   -0.06250000         24/512
   5:     0.31250000    0.06250000   -0.18750000         24/512
   6:     0.31250000    0.06250000   -0.06250000         24/512
   7:     0.31250000    0.18750000   -0.18750000         24/512
   8:     0.31250000    0.31250000   -0.31250000          6/512
   9:     0.31250000    0.31250000    0.18750000         12/512
          ...
  25:     0.43750000    0.43750000    0.43750000          8/512

Wave functions: Plane wave expansion
  Cutoff energy: 400.000 eV
  Number of coefficients (min, max): 490, 531
  Using FFTW library
  Eigensolver: None  MatrixOperator buffer_size: default value or 
                              see value of nblock in input file
Diagonalizer layout: Serial LAPACKOrthonormalizer layout: Serial LAPACK 

Davidson(niter=1, smin=None, normalize=True) 

Densities:
  Coarse grid: 14*14*14 grid
  Fine grid: 28*28*28 grid
  Total Charge: 0.000000 

Density mixing:
  Method: separate
  Backend: pulay
  Linear mixing parameter: 0.01
  Mixing with 11 old densities
  Damping of long wave oscillations: 100 

Hamiltonian:
  XC and Coulomb potentials evaluated on a 28*28*28 grid
  Using the PBE Exchange-Correlation functional
 

Memory estimate:
  Process memory now: 927.44 MiB
  Calculator: 6.14 MiB
    Density: 2.06 MiB
      Arrays: 0.73 MiB
      Localized functions: 0.41 MiB
      Mixer: 0.92 MiB
    Hamiltonian: 0.55 MiB
      Arrays: 0.54 MiB
      XC: 0.00 MiB
      Poisson: 0.00 MiB
      vbar: 0.01 MiB
    Wavefunctions: 3.53 MiB
      Arrays psit_nG: 1.69 MiB
      Eigensolver: 0.08 MiB
      Projections: 0.04 MiB
      Projectors: 1.43 MiB
      Overlap op: 0.03 MiB
      PW-descriptor: 0.26 MiB

Total number of cores used: 1

Number of atoms: 1
Number of atomic orbitals: 4
Number of bands in calculation: 4
Bands to converge: occupied states only
Number of valence electrons: 6

... initialized

Initializing position-dependent things.

Density initialized from atomic densities
Creating initial wave functions:
  4 bands from LCAO basis set

                
                
                
       Te       
                
                
                
                

Positions:
   0 Te     0.000000    0.000000    0.000000

Unit cell:
           periodic     x           y           z      points  spacing
  1. axis:    yes   -1.923000    1.923000    1.923000    14     0.1943
  2. axis:    yes    1.923000   -1.923000    1.923000    14     0.1943
  3. axis:    yes    1.923000    1.923000   -1.923000    14     0.1943

  Lengths:   3.330734   3.330734   3.330734
  Angles:  109.471221 109.471221 109.471221

Effective grid spacing dv^(1/3) = 0.2180

                     log10-error:    total        iterations:
           time      wfs    density  energy       fermi  poisson  magmom
iter:   1  02:29:01  +0.76   +inf    -2.760876    4               -0.0000
iter:   2  02:29:02  -0.38   +inf    -2.801805    5               +0.0000
iter:   3  02:29:02  -1.43   +inf    -2.807055    3               -0.0000
iter:   4  02:29:03  -2.11  -1.44    -2.807988    3               +0.0000
iter:   5  02:29:04  -2.73  -1.45    -2.807265    4               -0.0000
iter:   6  02:29:04  -2.01  -1.52    -2.806331    5               -0.0000
iter:   7  02:29:05  -2.98  -2.25    -2.806454    3               -0.0000
iter:   8  02:29:06  -3.86  -2.25    -2.806152    4               -0.0000
iter:   9  02:29:07  -4.16  -2.30    -2.806402    4               -0.0000
iter:  10  02:29:08  -3.22  -2.23    -2.806070    4               -0.0000
iter:  11  02:29:09  -4.11  -2.44    -2.806089    3               -0.0000
iter:  12  02:29:09  -4.83  -2.39    -2.806094    2               -0.0000
iter:  13  02:29:10  -5.42  -2.38    -2.806100    2               -0.0000
iter:  14  02:29:11  -4.99  -2.37    -2.806061    3               -0.0000
iter:  15  02:29:12  -5.28  -2.38    -2.806037    3               -0.0000
iter:  16  02:29:13  -6.26  -2.37    -2.806036    2               -0.0000
iter:  17  02:29:13  -6.05  -2.37    -2.806039    3               -0.0000
iter:  18  02:29:14  -4.26  -2.40    -2.806100    3               +0.0000
iter:  19  02:29:15  -5.46  -3.19    -2.806101    3               -0.0000
iter:  20  02:29:16  -5.95  -3.24    -2.806103    3               -0.0000
iter:  21  02:29:17  -6.20  -3.22    -2.806101    3               -0.0000
iter:  22  02:29:17  -6.70  -3.23    -2.806102    2               +0.0001
iter:  23  02:29:18  -6.45  -3.34    -2.806102    2               -0.0000
iter:  24  02:29:19  -6.84  -3.47    -2.806102    2               -0.0000
iter:  25  02:29:20  -6.61  -3.59    -2.806101    2               +0.0000
iter:  26  02:29:21  -7.26  -3.84    -2.806101    2               +0.0000
iter:  27  02:29:22  -5.02  -3.86    -2.806104    3               +0.0006
iter:  28  02:29:22  -5.88  -3.03    -2.806102    3               +0.0003
iter:  29  02:29:23  -6.14  -3.17    -2.806100    3               +0.0003
iter:  30  02:29:24  -5.45  -3.27    -2.806101    3               +0.0002
iter:  31  02:29:25  -5.58  -3.42    -2.806104    3               -0.0002
iter:  32  02:29:26  -5.37  -3.28    -2.806101    3               +0.0000
iter:  33  02:29:27  -6.04  -4.01    -2.806102    3               -0.0000
iter:  34  02:29:27  -6.30  -3.68    -2.806102    3               -0.0000
iter:  35  02:29:28  -7.34  -4.20    -2.806102    2               +0.0000
iter:  36  02:29:29  -7.97  -4.26    -2.806102    2               +0.0000

Converged after 36 iterations.

Dipole moment: (-0.000000, -0.000000, -0.000000) |e|*Ang

Total magnetic moment: 0.000008
Local magnetic moments:
   0 Te 0.000263

Energy contributions relative to reference atoms: (reference = -184790.683434)

Kinetic:         +2.123745
Potential:       -1.883468
External:        +0.000000
XC:              -3.150792
Entropy (-ST):   -0.003036
Local:           +0.105931
--------------------------
Free energy:     -2.807619
Extrapolated:    -2.806102

Spin contamination: 0.000210 electrons
Fermi level: 7.70713

Warning: Showing only first 2 kpts
                      Up                     Down
 Kpt  Band  Eigenvalues  Occupancy  Eigenvalues  Occupancy
  0     1      9.87097    0.00000      9.87109    0.00000
  0     2     10.20606    0.00000     10.20625    0.00000
  0     3     10.20623    0.00000     10.20642    0.00000

  1     1      8.16301    0.00000      8.16310    0.00000
  1     2      9.95683    0.00000      9.95697    0.00000
  1     3      9.95704    0.00000      9.95719    0.00000


Input parameters:
  convergence: {bands: all}
  eigensolver: {name: cg,
                niter: 5}
  fixdensity: True
  kpts: {npoints: 50,
         path: GHNGP}
  nbands: -4
  symmetry: off

Initialize ...

Te-setup:
  name: Tellurium
  id: e44b9ef4772d7e5a1c6a47e6d6496588
  Z: 52
  valence: 6
  core: 46
  charge: 0.0
  file: /usr/share/gpaw-setups/Te.PBE.gz
  cutoffs: 1.14(comp), 2.09(filt), 3.17(core), lmax=2
  valence states:
                energy  radius
    5s(2.00)   -15.089   1.180
    5p(4.00)    -5.955   1.196
    *s          12.123   1.180
    *p          21.256   1.196
    *d           0.000   1.238

  Using partial waves for Te as LCAO basis

Reference energy: -184790.683434

Spin-polarized calculation.
Magnetic moment:  0.000000

Occupation numbers:
  Fixed Fermi level
  Fermi-Dirac: width=0.0200 eV

Convergence criteria:
  Maximum total energy change: 0.0005 eV / electron
  Maximum integral of absolute density change: 0.0001 electrons
  Maximum integral of absolute eigenstate change: 4e-08 eV^2
  Maximum number of iterations: 1500

Symmetries present (total): 1

  ( 1  0  0)
  ( 0  1  0)
  ( 0  0  1)

50 k-points
50 k-points in the irreducible part of the Brillouin zone
       k-points in crystal coordinates                weights
   0:     0.00000000    0.00000000    0.00000000          1/50
   1:     0.03571429   -0.03571429    0.03571429          1/50
   2:     0.07142857   -0.07142857    0.07142857          1/50
   3:     0.10714286   -0.10714286    0.10714286          1/50
   4:     0.14285714   -0.14285714    0.14285714          1/50
   5:     0.17857143   -0.17857143    0.17857143          1/50
   6:     0.21428571   -0.21428571    0.21428571          1/50
   7:     0.25000000   -0.25000000    0.25000000          1/50
   8:     0.28571429   -0.28571429    0.28571429          1/50
   9:     0.32142857   -0.32142857    0.32142857          1/50
          ...
  49:     0.25000000    0.25000000    0.25000000          1/50

Wave functions: Plane wave expansion
  Cutoff energy: 400.000 eV
  Number of coefficients (min, max): 490, 535
  Using FFTW library
  Eigensolver: None  MatrixOperator buffer_size: default value or 
                              see value of nblock in input file
Diagonalizer layout: Serial LAPACKOrthonormalizer layout: Serial LAPACK 

CG(niter=5, rtol=3.0e-01) 

No density mixing

Memory estimate:
  Process memory now: 986.66 MiB
  Calculator: 11.80 MiB
    Density: 2.06 MiB
      Arrays: 0.73 MiB
      Localized functions: 0.41 MiB
      Mixer: 0.92 MiB
    Hamiltonian: 0.55 MiB
      Arrays: 0.54 MiB
      XC: 0.00 MiB
      Poisson: 0.00 MiB
      vbar: 0.01 MiB
    Wavefunctions: 9.18 MiB
      Arrays psit_nG: 5.71 MiB
      Eigensolver: 0.10 MiB
      Projections: 0.14 MiB
      Projectors: 2.77 MiB
      Overlap op: 0.06 MiB
      PW-descriptor: 0.40 MiB

Total number of cores used: 1

Number of atoms: 1
Number of atomic orbitals: 4
Number of bands in calculation: 7
Bands to converge: all
Number of valence electrons: 6

... initialized

Initializing position-dependent things.

Creating initial wave functions:
  4 bands from LCAO basis set
  3 bands from random numbers

                
                
                
       Te       
                
                
                
                

Positions:
   0 Te     0.000000    0.000000    0.000000

Unit cell:
           periodic     x           y           z      points  spacing
  1. axis:    yes   -1.923000    1.923000    1.923000    14     0.1943
  2. axis:    yes    1.923000   -1.923000    1.923000    14     0.1943
  3. axis:    yes    1.923000    1.923000   -1.923000    14     0.1943

  Lengths:   3.330734   3.330734   3.330734
  Angles:  109.471221 109.471221 109.471221

Effective grid spacing dv^(1/3) = 0.2180

                     log10-error:    total        iterations:
           time      wfs    density  energy       fermi  poisson  magmom
iter:   1  02:29:36  +3.92           -0.802095    30              +0.0013
iter:   2  02:29:39  +2.88           -0.984544    31              -0.0025
iter:   3  02:29:42  +1.96           -1.003380    32              +0.0004
iter:   4  02:29:45  +1.10           -1.004936    31              +0.0001
iter:   5  02:29:49  +0.31           -1.005090    29              +0.0000
iter:   6  02:29:52  -0.27           -1.005105    32              +0.0000
iter:   7  02:29:55  -0.90           -1.005107    32              +0.0000
iter:   8  02:29:59  -1.58           -1.005108    32              +0.0000
iter:   9  02:30:02  -2.10           -1.005108    32              +0.0000
iter:  10  02:30:05  -2.02           -1.005108    27              +0.0000
iter:  11  02:30:08  -2.75           -1.005108    31              +0.0000
iter:  12  02:30:10  -3.01           -1.005108    33              +0.0000
iter:  13  02:30:12  -3.06           -1.005108    33              +0.0000
iter:  14  02:30:14  -3.24           -1.005108    33              +0.0000
iter:  15  02:30:15  -3.49           -1.005108    33              +0.0000
iter:  16  02:30:16  -3.42           -1.005108    33              +0.0000
iter:  17  02:30:18  -3.24           -1.005108    33              +0.0000
iter:  18  02:30:19  -4.16           -1.005108    33              +0.0000
iter:  19  02:30:20  -4.15           -1.005108    33              +0.0000
iter:  20  02:30:21  -4.14           -1.005108    33              +0.0000
iter:  21  02:30:22  -4.55           -1.005108    33              +0.0000
iter:  22  02:30:23  -4.83           -1.005108    33              +0.0000
iter:  23  02:30:23  -4.44           -1.005108    33              +0.0000
iter:  24  02:30:24  -4.71           -1.005108    33              +0.0000
iter:  25  02:30:25  -4.81           -1.005108    33              +0.0000
iter:  26  02:30:26  -5.04           -1.005108    33              +0.0000
iter:  27  02:30:27  -5.13           -1.005108    33              +0.0000
iter:  28  02:30:28  -4.85           -1.005108    33              +0.0000
iter:  29  02:30:29  -5.23           -1.005108    33              +0.0000
iter:  30  02:30:30  -5.29           -1.005108    33              +0.0000
iter:  31  02:30:31  -4.66           -1.005108    33              +0.0000
iter:  32  02:30:32  -5.62           -1.005108    33              +0.0000
iter:  33  02:30:33  -5.63           -1.005108    33              +0.0000
iter:  34  02:30:34  -5.82           -1.005108    33              +0.0000
iter:  35  02:30:34  -5.70           -1.005108    33              +0.0000
iter:  36  02:30:35  -5.68           -1.005108    33              +0.0000
iter:  37  02:30:36  -5.80           -1.005108    33              +0.0000
iter:  38  02:30:37  -5.77           -1.005108    33              +0.0000
iter:  39  02:30:38  -5.30           -1.005108    33              +0.0000
iter:  40  02:30:39  -5.42           -1.005108    33              +0.0000
iter:  41  02:30:40  -5.99           -1.005108    33              +0.0000
iter:  42  02:30:41  -6.24           -1.005108    33              +0.0000
iter:  43  02:30:42  -5.54           -1.005108    33              +0.0000
iter:  44  02:30:42  -5.46           -1.005108    33              +0.0000
iter:  45  02:30:43  -6.03           -1.005108    33              +0.0000
iter:  46  02:30:44  -6.33           -1.005108    33              +0.0000
iter:  47  02:30:45  -6.17           -1.005108    33              +0.0000
iter:  48  02:30:46  -5.56           -1.005108    33              +0.0000
iter:  49  02:30:47  -6.22           -1.005108    33              +0.0000
iter:  50  02:30:48  -6.34           -1.005108    33              +0.0000
iter:  51  02:30:49  -6.53           -1.005108    33              +0.0000
iter:  52  02:30:49  -6.20           -1.005108    33              +0.0000
iter:  53  02:30:50  -6.48           -1.005108    33              +0.0000
iter:  54  02:30:51  -6.41           -1.005108    33              +0.0000
iter:  55  02:30:52  -6.09           -1.005108    33              +0.0000
iter:  56  02:30:53  -6.55           -1.005108    33              +0.0000
iter:  57  02:30:54  -6.66           -1.005108    33              +0.0000
iter:  58  02:30:55  -6.42           -1.005108    33              +0.0000
iter:  59  02:30:55  -6.65           -1.005108    33              +0.0000
iter:  60  02:30:56  -6.57           -1.005108    33              +0.0000
iter:  61  02:30:57  -6.71           -1.005108    33              +0.0000
iter:  62  02:30:58  -6.53           -1.005108    33              +0.0000
iter:  63  02:30:59  -6.72           -1.005108    33              +0.0000
iter:  64  02:31:00  -6.24           -1.005108    33              +0.0000
iter:  65  02:31:00  -5.11           -1.005108    33              +0.0000
iter:  66  02:31:01  -6.14           -1.005108    33              +0.0000
iter:  67  02:31:02  -6.56           -1.005108    33              +0.0000
iter:  68  02:31:03  -6.48           -1.005108    33              +0.0000
iter:  69  02:31:04  -6.84           -1.005108    33              +0.0000
iter:  70  02:31:05  -6.73           -1.005108    33              +0.0000
iter:  71  02:31:06  -6.64           -1.005108    33              +0.0000
iter:  72  02:31:06  -6.72           -1.005108    33              +0.0000
iter:  73  02:31:07  -6.50           -1.005108    33              +0.0000
iter:  74  02:31:08  -6.39           -1.005108    33              +0.0000
iter:  75  02:31:09  -6.91           -1.005108    33              +0.0000
iter:  76  02:31:10  -6.65           -1.005108    33              +0.0000
iter:  77  02:31:11  -6.76           -1.005108    33              +0.0000
iter:  78  02:31:11  -6.62           -1.005108    33              +0.0000
iter:  79  02:31:12  -6.56           -1.005108    33              +0.0000
iter:  80  02:31:13  -6.65           -1.005108    33              +0.0000
iter:  81  02:31:14  -6.80           -1.005108    33              +0.0000
iter:  82  02:31:15  -6.67           -1.005108    33              +0.0000
iter:  83  02:31:16  -6.95           -1.005108    33              +0.0000
iter:  84  02:31:16  -6.58           -1.005108    33              +0.0000
iter:  85  02:31:17  -6.87           -1.005108    33              +0.0000
iter:  86  02:31:18  -6.69           -1.005108    33              +0.0000
iter:  87  02:31:19  -6.97           -1.005108    33              +0.0000
iter:  88  02:31:20  -6.52           -1.005108    33              +0.0000
iter:  89  02:31:21  -6.89           -1.005108    33              +0.0000
iter:  90  02:31:21  -6.66           -1.005108    33              +0.0000
iter:  91  02:31:22  -6.90           -1.005108    33              +0.0000
iter:  92  02:31:23  -6.77           -1.005108    33              +0.0000
iter:  93  02:31:24  -6.82           -1.005108    33              +0.0000
iter:  94  02:31:25  -6.71           -1.005108    33              +0.0000
iter:  95  02:31:26  -6.91           -1.005108    33              +0.0000
iter:  96  02:31:26  -6.35           -1.005108    33              +0.0000
iter:  97  02:31:27  -6.92           -1.005108    33              +0.0000
iter:  98  02:31:28  -6.81           -1.005108    33              +0.0000
iter:  99  02:31:29  -6.96           -1.005108    33              +0.0000
iter: 100  02:31:30  -6.67           -1.005108    33              +0.0000
iter: 101  02:31:31  -7.00           -1.005108    33              +0.0000
iter: 102  02:31:31  -6.60           -1.005108    33              +0.0000
iter: 103  02:31:32  -6.88           -1.005108    33              +0.0000
iter: 104  02:31:33  -6.73           -1.005108    33              +0.0000
iter: 105  02:31:34  -7.03           -1.005108    33              +0.0000
iter: 106  02:31:35  -6.61           -1.005108    33              +0.0000
iter: 107  02:31:35  -7.03           -1.005108    33              +0.0000
iter: 108  02:31:36  -6.68           -1.005108    33              +0.0000
iter: 109  02:31:37  -6.65           -1.005108    33              +0.0000
iter: 110  02:31:38  -6.84           -1.005108    33              +0.0000
iter: 111  02:31:39  -6.96           -1.005108    33              +0.0000
iter: 112  02:31:40  -6.72           -1.005108    33              +0.0000
iter: 113  02:31:40  -7.04           -1.005108    33              +0.0000
iter: 114  02:31:41  -6.78           -1.005108    33              +0.0000
iter: 115  02:31:42  -6.82           -1.005108    33              +0.0000
iter: 116  02:31:43  -6.81           -1.005108    33              +0.0000
iter: 117  02:31:44  -7.02           -1.005108    33              +0.0000
iter: 118  02:31:44  -6.74           -1.005108    33              +0.0000
iter: 119  02:31:45  -6.98           -1.005108    33              +0.0000
iter: 120  02:31:46  -6.78           -1.005108    33              +0.0000
iter: 121  02:31:47  -7.03           -1.005108    33              +0.0000
iter: 122  02:31:48  -6.88           -1.005108    33              +0.0000
iter: 123  02:31:49  -6.97           -1.005108    33              +0.0000
iter: 124  02:31:49  -6.74           -1.005108    33              +0.0000
iter: 125  02:31:50  -7.09           -1.005108    33              +0.0000
iter: 126  02:31:51  -6.80           -1.005108    33              +0.0000
iter: 127  02:31:52  -7.07           -1.005108    33              +0.0000
iter: 128  02:31:53  -6.85           -1.005108    33              +0.0000
iter: 129  02:31:53  -6.78           -1.005108    33              +0.0000
iter: 130  02:31:54  -6.72           -1.005108    33              +0.0000
iter: 131  02:31:55  -7.10           -1.005108    33              +0.0000
iter: 132  02:31:56  -6.68           -1.005108    33              +0.0000
iter: 133  02:31:57  -7.09           -1.005108    33              +0.0000
iter: 134  02:31:57  -6.82           -1.005108    33              +0.0000
iter: 135  02:31:58  -6.59           -1.005108    33              +0.0000
iter: 136  02:31:59  -6.80           -1.005108    33              +0.0000
iter: 137  02:32:00  -7.04           -1.005108    33              +0.0000
iter: 138  02:32:01  -6.35           -1.005108    33              +0.0000
iter: 139  02:32:01  -7.07           -1.005108    33              +0.0000
iter: 140  02:32:02  -6.78           -1.005108    33              +0.0000
iter: 141  02:32:03  -6.78           -1.005108    33              +0.0000
iter: 142  02:32:04  -6.80           -1.005108    33              +0.0000
iter: 143  02:32:05  -7.12           -1.005108    33              +0.0000
iter: 144  02:32:06  -6.73           -1.005108    33              +0.0000
iter: 145  02:32:06  -7.13           -1.005108    33              +0.0000
iter: 146  02:32:07  -6.84           -1.005108    33              +0.0000
iter: 147  02:32:08  -7.14           -1.005108    33              +0.0000
iter: 148  02:32:09  -6.84           -1.005108    33              +0.0000
iter: 149  02:32:10  -7.14           -1.005108    33              +0.0000
iter: 150  02:32:10  -6.94           -1.005108    33              +0.0000
iter: 151  02:32:11  -7.14           -1.005108    33              +0.0000
iter: 152  02:32:12  -6.88           -1.005108    33              +0.0000
iter: 153  02:32:13  -7.15           -1.005108    33              +0.0000
iter: 154  02:32:14  -6.87           -1.005108    33              +0.0000
iter: 155  02:32:15  -7.15           -1.005108    33              +0.0000
iter: 156  02:32:15  -6.89           -1.005108    33              +0.0000
iter: 157  02:32:16  -7.15           -1.005108    33              +0.0000
iter: 158  02:32:17  -6.84           -1.005108    33              +0.0000
iter: 159  02:32:18  -7.15           -1.005108    33              +0.0000
iter: 160  02:32:19  -6.84           -1.005108    33              +0.0000
iter: 161  02:32:19  -7.16           -1.005108    33              +0.0000
iter: 162  02:32:20  -6.93           -1.005108    33              +0.0000
iter: 163  02:32:21  -7.16           -1.005108    33              +0.0000
iter: 164  02:32:22  -6.79           -1.005108    33              +0.0000
iter: 165  02:32:23  -7.16           -1.005108    33              +0.0000
iter: 166  02:32:23  -6.99           -1.005108    33              +0.0000
iter: 167  02:32:24  -7.17           -1.005108    33              +0.0000
iter: 168  02:32:25  -6.84           -1.005108    33              +0.0000
iter: 169  02:32:26  -7.15           -1.005108    33              +0.0000
iter: 170  02:32:27  -6.80           -1.005108    33              +0.0000
iter: 171  02:32:28  -6.63           -1.005108    33              +0.0000
iter: 172  02:32:28  -6.95           -1.005108    33              +0.0000
iter: 173  02:32:29  -7.16           -1.005108    33              +0.0000
iter: 174  02:32:30  -6.80           -1.005108    33              +0.0000
iter: 175  02:32:31  -6.62           -1.005108    33              +0.0000
iter: 176  02:32:32  -6.90           -1.005108    33              +0.0000
iter: 177  02:32:32  -7.16           -1.005108    33              +0.0000
iter: 178  02:32:33  -6.92           -1.005108    33              +0.0000
iter: 179  02:32:34  -6.62           -1.005108    33              +0.0000
iter: 180  02:32:35  -6.83           -1.005108    33              +0.0000
iter: 181  02:32:36  -7.16           -1.005108    33              +0.0000
iter: 182  02:32:36  -6.89           -1.005108    33              +0.0000
iter: 183  02:32:37  -6.61           -1.005108    33              +0.0000
iter: 184  02:32:38  -6.83           -1.005108    33              +0.0000
iter: 185  02:32:39  -7.16           -1.005108    33              +0.0000
iter: 186  02:32:40  -6.84           -1.005108    33              +0.0000
iter: 187  02:32:41  -6.59           -1.005108    33              +0.0000
iter: 188  02:32:41  -6.86           -1.005108    33              +0.0000
iter: 189  02:32:42  -7.16           -1.005108    33              +0.0000
iter: 190  02:32:43  -6.88           -1.005108    33              +0.0000
iter: 191  02:32:44  -6.56           -1.005108    33              +0.0000
iter: 192  02:32:45  -6.90           -1.005108    33              +0.0000
iter: 193  02:32:45  -7.15           -1.005108    33              +0.0000
iter: 194  02:32:46  -6.93           -1.005108    33              +0.0000
iter: 195  02:32:47  -6.52           -1.005108    33              +0.0000
iter: 196  02:32:48  -6.89           -1.005108    33              +0.0000
iter: 197  02:32:49  -7.12           -1.005108    33              +0.0000
iter: 198  02:32:49  -6.53           -1.005108    33              +0.0000
iter: 199  02:32:50  -7.04           -1.005108    33              +0.0000
iter: 200  02:32:51  -4.88           -1.005108    33              +0.0000
iter: 201  02:32:52  -5.50           -1.005108    33              +0.0000
iter: 202  02:32:53  -6.81           -1.005108    33              +0.0000
iter: 203  02:32:53  -7.26           -1.005108    33              +0.0000
iter: 204  02:32:54  -6.83           -1.005108    33              +0.0000
iter: 205  02:32:55  -7.28           -1.005108    33              +0.0000
iter: 206  02:32:56  -6.89           -1.005108    33              +0.0000
iter: 207  02:32:57  -7.29           -1.005108    33              +0.0000
iter: 208  02:32:58  -6.75           -1.005108    33              +0.0000
iter: 209  02:32:58  -7.17           -1.005108    33              +0.0000
iter: 210  02:32:59  -6.95           -1.005108    33              +0.0000
iter: 211  02:33:00  -7.29           -1.005108    33              +0.0000
iter: 212  02:33:01  -6.93           -1.005108    33              +0.0000
iter: 213  02:33:02  -7.29           -1.005108    33              +0.0000
iter: 214  02:33:02  -6.87           -1.005108    33              +0.0000
iter: 215  02:33:03  -7.29           -1.005108    33              +0.0000
iter: 216  02:33:04  -6.98           -1.005108    33              +0.0000
iter: 217  02:33:05  -7.30           -1.005108    33              +0.0000
iter: 218  02:33:06  -6.90           -1.005108    33              +0.0000
iter: 219  02:33:06  -7.29           -1.005108    33              +0.0000
iter: 220  02:33:07  -6.89           -1.005108    33              +0.0000
iter: 221  02:33:08  -7.30           -1.005108    33              +0.0000
iter: 222  02:33:09  -7.03           -1.005108    33              +0.0000
iter: 223  02:33:10  -7.29           -1.005108    33              +0.0000
iter: 224  02:33:11  -6.84           -1.005108    33              +0.0000
iter: 225  02:33:11  -7.30           -1.005108    33              +0.0000
iter: 226  02:33:12  -6.93           -1.005108    33              +0.0000
iter: 227  02:33:13  -7.21           -1.005108    33              +0.0000
iter: 228  02:33:14  -6.86           -1.005108    33              +0.0000
iter: 229  02:33:15  -7.30           -1.005108    33              +0.0000
iter: 230  02:33:15  -6.91           -1.005108    33              +0.0000
iter: 231  02:33:16  -7.29           -1.005108    33              +0.0000
iter: 232  02:33:17  -6.89           -1.005108    33              +0.0000
iter: 233  02:33:18  -7.29           -1.005108    33              +0.0000
iter: 234  02:33:19  -6.90           -1.005108    33              +0.0000
iter: 235  02:33:19  -6.57           -1.005108    33              +0.0000
iter: 236  02:33:20  -6.93           -1.005108    33              +0.0000
iter: 237  02:33:21  -7.31           -1.005108    33              +0.0000
iter: 238  02:33:22  -6.94           -1.005108    33              +0.0000
iter: 239  02:33:23  -7.31           -1.005108    33              +0.0000
iter: 240  02:33:24  -6.95           -1.005108    33              +0.0000
iter: 241  02:33:24  -7.32           -1.005108    33              +0.0000
iter: 242  02:33:25  -6.90           -1.005108    33              +0.0000
iter: 243  02:33:26  -7.31           -1.005108    33              +0.0000
iter: 244  02:33:27  -6.89           -1.005108    33              +0.0000
iter: 245  02:33:28  -7.32           -1.005108    33              +0.0000
iter: 246  02:33:28  -6.97           -1.005108    33              +0.0000
iter: 247  02:33:29  -7.32           -1.005108    33              +0.0000
iter: 248  02:33:30  -6.81           -1.005108    33              +0.0000
iter: 249  02:33:31  -7.31           -1.005108    33              +0.0000
iter: 250  02:33:32  -7.07           -1.005108    33              +0.0000
iter: 251  02:33:33  -7.32           -1.005108    33              +0.0000
iter: 252  02:33:33  -6.76           -1.005108    33              +0.0000
iter: 253  02:33:34  -7.34           -1.005108    33              +0.0000
iter: 254  02:33:35  -6.62           -1.005108    33              +0.0000
iter: 255  02:33:36  -7.33           -1.005108    33              +0.0000
iter: 256  02:33:37  -6.82           -1.005108    33              +0.0000
iter: 257  02:33:37  -7.37           -1.005108    33              +0.0000
iter: 258  02:33:38  -6.47           -1.005108    33              +0.0000
iter: 259  02:33:39  -7.34           -1.005108    33              +0.0000
iter: 260  02:33:40  -6.76           -1.005108    33              +0.0000
iter: 261  02:33:41  -7.37           -1.005108    33              +0.0000
iter: 262  02:33:41  -6.26           -1.005108    33              +0.0000
iter: 263  02:33:42  -7.35           -1.005108    33              +0.0000
iter: 264  02:33:43  -6.58           -1.005108    33              +0.0000
iter: 265  02:33:44  -7.33           -1.005108    33              +0.0000
iter: 266  02:33:45  -6.33           -1.005108    33              +0.0000
iter: 267  02:33:45  -6.45           -1.005108    33              +0.0000
iter: 268  02:33:46  -4.44           -1.005108    33              +0.0000
iter: 269  02:33:47  -5.18           -1.005108    33              +0.0000
iter: 270  02:33:48  -6.68           -1.005108    33              +0.0000
iter: 271  02:33:49  -7.27           -1.005108    33              +0.0000
iter: 272  02:33:50  -6.88           -1.005108    33              +0.0000
iter: 273  02:33:50  -7.41           -1.005108    33              +0.0000

Converged after 273 iterations.

Dipole moment: (-0.000000, -0.000000, -0.000000) |e|*Ang

Total magnetic moment: 0.000045
Local magnetic moments:
   0 Te 0.000263

Energy contributions relative to reference atoms: (reference = -184790.683434)

Kinetic:         +3.923960
Potential:       -1.883387
External:        +0.000000
XC:              -3.150746
Entropy (-ST):   -0.001681
Local:           +0.105906
--------------------------
Free energy:     -1.005948
Extrapolated:    -1.005108

Spin contamination: 0.000210 electrons
Fixed Fermi level: 7.70713

Warning: Showing only first 2 kpts
                      Up                     Down
 Kpt  Band  Eigenvalues  Occupancy  Eigenvalues  Occupancy
  0     1     10.57177    0.00000     10.57197    0.00000
  0     2     10.57180    0.00000     10.57200    0.00000
  0     3     10.57180    0.00000     10.57200    0.00000
  0     4     17.42314    0.00000     17.42255    0.00000

  1     1     10.32173    0.00000     10.32190    0.00000
  1     2     10.44899    0.00000     10.44919    0.00000
  1     3     10.44907    0.00000     10.44926    0.00000
  1     4     17.58149    0.00000     17.58146    0.00000


Timing:                              incl.     excl.
-----------------------------------------------------------
Hamiltonian:                         0.698     0.002   0.0% |
 Atomic:                             0.516     0.002   0.0% |
  XC Correction:                     0.514     0.514   0.2% |
 Calculate atomic Hamiltonians:      0.008     0.008   0.0% |
 Communicate:                        0.000     0.000   0.0% |
 Initialize Hamiltonian:             0.001     0.001   0.0% |
 Poisson:                            0.001     0.001   0.0% |
 XC 3D grid:                         0.171     0.171   0.1% |
LCAO initialization:                 1.650     0.051   0.0% |
 LCAO eigensolver:                   0.900     0.014   0.0% |
  Calculate projections:             0.004     0.004   0.0% |
  DenseAtomicCorrection:             0.025     0.025   0.0% |
  Distribute overlap matrix:         0.005     0.005   0.0% |
  Orbital Layouts:                   0.025     0.025   0.0% |
  Potential matrix:                  0.102     0.102   0.0% |
  Sum over cells:                    0.726     0.726   0.2% |
 LCAO to grid:                       0.421     0.421   0.1% |
 Set positions (LCAO WFS):           0.279     0.000   0.0% |
  Basic WFS set positions:           0.002     0.002   0.0% |
  Basis functions set positions:     0.000     0.000   0.0% |
  TCI: Calculate S, T, P:            0.276     0.276   0.1% |
PWDescriptor:                        0.022     0.022   0.0% |
Redistribute:                        0.000     0.000   0.0% |
SCF-cycle:                         287.660    97.275  33.2% |------------|
 CG:                                81.230    72.565  24.8% |---------|
  CG: orthonormalize:                8.666     4.975   1.7% ||
   CG: overlap:                      2.360     2.360   0.8% |
   CG: overlap2:                     1.331     1.331   0.5% |
 Davidson:                           9.064     5.464   1.9% ||
  calc. matrices:                    2.552     2.552   0.9% |
  diagonalize:                       0.583     0.583   0.2% |
  rotate_psi:                        0.465     0.465   0.2% |
 Density:                            3.562     0.002   0.0% |
  Atomic density matrices:           0.179     0.179   0.1% |
  Mix:                               0.270     0.270   0.1% |
  Multipole moments:                 0.008     0.008   0.0% |
  Pseudo density:                    3.102     1.739   0.6% |
   Symmetrize density:               1.364     1.364   0.5% |
 Hamiltonian:                       11.376     0.023   0.0% |
  Atomic:                            8.537     0.031   0.0% |
   XC Correction:                    8.506     8.506   2.9% ||
  Calculate atomic Hamiltonians:     0.127     0.127   0.0% |
  Communicate:                       0.000     0.000   0.0% |
  Poisson:                           0.009     0.009   0.0% |
  XC 3D grid:                        2.680     2.680   0.9% |
 Orthonormalize:                     0.160     0.012   0.0% |
  Band Layouts:                      0.008     0.003   0.0% |
   Inverse Cholesky:                 0.005     0.005   0.0% |
  calc_s_matrix:                     0.025     0.025   0.0% |
  projections:                       0.093     0.093   0.0% |
  rotate_psi:                        0.022     0.022   0.0% |
 Residuals:                         21.967    21.967   7.5% |--|
 Subspace diag:                     63.027     3.409   1.2% |
  Band Layouts:                      6.358     1.021   0.3% |
   Diagonalize:                      4.646     4.646   1.6% ||
   Distribute results:               0.690     0.690   0.2% |
  calc_h_matrix:                    45.682    45.682  15.6% |-----|
  rotate_psi:                        7.578     7.578   2.6% ||
Set symmetry:                        0.097     0.097   0.0% |
Other:                               2.504     2.504   0.9% |
-----------------------------------------------------------
Total:                                       292.632 100.0%

Date: Fri Feb 12 02:33:51 2021
element =  Te
struct =  bcc
kpts =  (8,8,8)
element =  Te
configuration =  [Kr] 4d10 5s2 5p4
valence =  ['5s', '5p']
occupations =  {'5s': 2, '5p': 4}
nls =  5p
rNum =  600
lmax =  d
*******************************************
Starting confinement parameter optimization
Adjustable parameters and initial values:
  Te_5p.r0 : 5.215644
  Te_5s.r0 : 5.215644
  Te_n.r0 : 7.823466
*******************************************

OPT_VAL: 5.215644107309922   5.215644107309922   7.823466160964883
VCONF:
  Te_5p : PowerConfinement(r0=5.215644, s=2.000000)
  Te_5s : PowerConfinement(r0=5.215644, s=2.000000)
  Te_n : PowerConfinement(r0=7.823466, s=2.000000)
RESIDUAL: 0.0

OPT_VAL: 5.415644107309922   5.215644107309922   7.823466160964883
VCONF:
  Te_5p : PowerConfinement(r0=5.415644, s=2.000000)
  Te_5s : PowerConfinement(r0=5.215644, s=2.000000)
  Te_n : PowerConfinement(r0=7.823466, s=2.000000)
RESIDUAL: 0.0

OPT_VAL: 5.215644107309922   5.415644107309922   7.823466160964883
VCONF:
  Te_5p : PowerConfinement(r0=5.215644, s=2.000000)
  Te_5s : PowerConfinement(r0=5.415644, s=2.000000)
  Te_n : PowerConfinement(r0=7.823466, s=2.000000)
RESIDUAL: 0.0

OPT_VAL: 5.215644107309922   5.215644107309922   8.023466160964883
VCONF:
  Te_5p : PowerConfinement(r0=5.215644, s=2.000000)
  Te_5s : PowerConfinement(r0=5.215644, s=2.000000)
  Te_n : PowerConfinement(r0=8.023466, s=2.000000)
RESIDUAL: 0.0

OPT_VAL: 5.240644107309922   5.215644107309922   7.823466160964883
VCONF:
  Te_5p : PowerConfinement(r0=5.240644, s=2.000000)
  Te_5s : PowerConfinement(r0=5.215644, s=2.000000)
  Te_n : PowerConfinement(r0=7.823466, s=2.000000)
RESIDUAL: 0.0

OPT_VAL: 5.215644107309922   5.240644107309922   7.823466160964883
VCONF:
  Te_5p : PowerConfinement(r0=5.215644, s=2.000000)
  Te_5s : PowerConfinement(r0=5.240644, s=2.000000)
  Te_n : PowerConfinement(r0=7.823466, s=2.000000)
RESIDUAL: 0.0

OPT_VAL: 5.215644107309922   5.215644107309922   7.848466160964883
VCONF:
  Te_5p : PowerConfinement(r0=5.215644, s=2.000000)
  Te_5s : PowerConfinement(r0=5.215644, s=2.000000)
  Te_n : PowerConfinement(r0=7.848466, s=2.000000)
RESIDUAL: 0.0

OPT_VAL: 5.220644107309922   5.215644107309922   7.823466160964883
VCONF:
  Te_5p : PowerConfinement(r0=5.220644, s=2.000000)
  Te_5s : PowerConfinement(r0=5.215644, s=2.000000)
  Te_n : PowerConfinement(r0=7.823466, s=2.000000)
RESIDUAL: 0.0

OPT_VAL: 5.215644107309922   5.220644107309922   7.823466160964883
VCONF:
  Te_5p : PowerConfinement(r0=5.215644, s=2.000000)
  Te_5s : PowerConfinement(r0=5.220644, s=2.000000)
  Te_n : PowerConfinement(r0=7.823466, s=2.000000)
RESIDUAL: 0.0

OPT_VAL: 5.215644107309922   5.215644107309922   7.828466160964883
VCONF:
  Te_5p : PowerConfinement(r0=5.215644, s=2.000000)
  Te_5s : PowerConfinement(r0=5.215644, s=2.000000)
  Te_n : PowerConfinement(r0=7.828466, s=2.000000)
RESIDUAL: 0.0

*******************************************
Optimization finished after 10 iterations
Adjustable parameters and final values:
  Te_5p.r0 : 5.215644
  Te_5s.r0 : 5.215644
  Te_n.r0 : 7.823466
*******************************************

VCONF:
  Te_5p : PowerConfinement(r0=5.215644, s=2.000000)
  Te_5s : PowerConfinement(r0=5.215644, s=2.000000)
  Te_n : PowerConfinement(r0=7.823466, s=2.000000)
