element =  F
struct =  bcc
nbands =  -4
path =  GHNGP
kpts =  (8,8,8)
lattice constant a =  2.714
lattice constant b =  2.714
lattice constant c =  2.714
alpha angle =  90.0

  ___ ___ ___ _ _ _  
 |   |   |_  | | | | 
 | | | | | . | | | | 
 |__ |  _|___|_____|  1.3.1b1
 |___|_|             

User:   inukai@DESKTOP-12SE80T
Date:   Thu Feb 11 14:21:32 2021
Arch:   x86_64
Pid:    9259
Python: 3.6.9
gpaw:   /usr/lib/python3/dist-packages/gpaw
_gpaw:  /usr/lib/python3/dist-packages/_gpaw.cpython-36m-x86_64-linux-gnu.so
ase:    /home/inukai/hotcent/ase-3.19.3/ase (version 3.19.3)
numpy:  /home/inukai/.local/lib/python3.6/site-packages/numpy (version 1.19.5)
scipy:  /home/inukai/.local/lib/python3.6/site-packages/scipy (version 1.5.4)
units:  Angstrom and eV
cores:  1

Input parameters:
  kpts: [8 8 8]
  maxiter: 1500
  mixer: {backend: pulay,
          beta: 0.01,
          method: separate,
          nmaxold: 11,
          weight: 100.0}
  mode: {ecut: 400.0,
         name: pw}
  occupations: {name: fermi-dirac,
                width: 0.02}
  spinpol: True
  xc: PBE

System changes: positions, numbers, cell, pbc, initial_charges, initial_magmoms 

Initialize ...

F-setup:
  name: Fluorine
  id: 9cd46ba2a61e170ad72278be75b55cc0
  Z: 9
  valence: 7
  core: 2
  charge: 0.0
  file: /usr/share/gpaw-setups/F.PBE.gz
  cutoffs: 0.64(comp), 1.14(filt), 0.74(core), lmax=2
  valence states:
                energy  radius
    2s(2.00)   -29.898   0.635
    2p(5.00)   -11.110   0.635
    *s          -2.687   0.635
    *p          16.102   0.635
    *d           0.000   0.635

  Using partial waves for F as LCAO basis

Reference energy: -2714.080785

Spin-polarized calculation.
Magnetic moment:  0.000000

Occupation numbers:
  Fermi-Dirac: width=0.0200 eV

Convergence criteria:
  Maximum total energy change: 0.0005 eV / electron
  Maximum integral of absolute density change: 0.0001 electrons
  Maximum integral of absolute eigenstate change: 4e-08 eV^2
  Maximum number of iterations: 1500

Symmetries present (total): 48

  ( 1  1  1)  ( 1  1  1)  ( 1  1  1)  ( 1  1  1)  ( 1  1  1)  ( 1  1  1)
  ( 0  0 -1)  ( 0  0 -1)  ( 0 -1  0)  ( 0 -1  0)  (-1  0  0)  (-1  0  0)
  ( 0 -1  0)  (-1  0  0)  ( 0  0 -1)  (-1  0  0)  ( 0  0 -1)  ( 0 -1  0)

  ( 1  0  0)  ( 1  0  0)  ( 1  0  0)  ( 1  0  0)  ( 1  0  0)  ( 1  0  0)
  ( 0  1  0)  ( 0  1  0)  ( 0  0  1)  ( 0  0  1)  (-1 -1 -1)  (-1 -1 -1)
  ( 0  0  1)  (-1 -1 -1)  ( 0  1  0)  (-1 -1 -1)  ( 0  1  0)  ( 0  0  1)

  ( 0  1  0)  ( 0  1  0)  ( 0  1  0)  ( 0  1  0)  ( 0  1  0)  ( 0  1  0)
  ( 1  0  0)  ( 1  0  0)  ( 0  0  1)  ( 0  0  1)  (-1 -1 -1)  (-1 -1 -1)
  ( 0  0  1)  (-1 -1 -1)  ( 1  0  0)  (-1 -1 -1)  ( 1  0  0)  ( 0  0  1)

  ( 0  0  1)  ( 0  0  1)  ( 0  0  1)  ( 0  0  1)  ( 0  0  1)  ( 0  0  1)
  ( 1  0  0)  ( 1  0  0)  ( 0  1  0)  ( 0  1  0)  (-1 -1 -1)  (-1 -1 -1)
  ( 0  1  0)  (-1 -1 -1)  ( 1  0  0)  (-1 -1 -1)  ( 1  0  0)  ( 0  1  0)

  ( 0  0 -1)  ( 0  0 -1)  ( 0  0 -1)  ( 0  0 -1)  ( 0  0 -1)  ( 0  0 -1)
  ( 1  1  1)  ( 1  1  1)  ( 0 -1  0)  ( 0 -1  0)  (-1  0  0)  (-1  0  0)
  ( 0 -1  0)  (-1  0  0)  ( 1  1  1)  (-1  0  0)  ( 1  1  1)  ( 0 -1  0)

  ( 0 -1  0)  ( 0 -1  0)  ( 0 -1  0)  ( 0 -1  0)  ( 0 -1  0)  ( 0 -1  0)
  ( 1  1  1)  ( 1  1  1)  ( 0  0 -1)  ( 0  0 -1)  (-1  0  0)  (-1  0  0)
  ( 0  0 -1)  (-1  0  0)  ( 1  1  1)  (-1  0  0)  ( 1  1  1)  ( 0  0 -1)

  (-1  0  0)  (-1  0  0)  (-1  0  0)  (-1  0  0)  (-1  0  0)  (-1  0  0)
  ( 1  1  1)  ( 1  1  1)  ( 0  0 -1)  ( 0  0 -1)  ( 0 -1  0)  ( 0 -1  0)
  ( 0  0 -1)  ( 0 -1  0)  ( 1  1  1)  ( 0 -1  0)  ( 1  1  1)  ( 0  0 -1)

  (-1 -1 -1)  (-1 -1 -1)  (-1 -1 -1)  (-1 -1 -1)  (-1 -1 -1)  (-1 -1 -1)
  ( 1  0  0)  ( 1  0  0)  ( 0  1  0)  ( 0  1  0)  ( 0  0  1)  ( 0  0  1)
  ( 0  1  0)  ( 0  0  1)  ( 1  0  0)  ( 0  0  1)  ( 1  0  0)  ( 0  1  0)

512 k-points: 8 x 8 x 8 Monkhorst-Pack grid
26 k-points in the irreducible part of the Brillouin zone
       k-points in crystal coordinates                weights
   0:     0.06250000    0.06250000   -0.06250000          6/512
   1:     0.18750000   -0.06250000   -0.06250000          8/512
   2:     0.18750000    0.06250000   -0.06250000         24/512
   3:     0.18750000    0.18750000   -0.18750000          6/512
   4:     0.31250000   -0.06250000   -0.06250000         24/512
   5:     0.31250000    0.06250000   -0.18750000         24/512
   6:     0.31250000    0.06250000   -0.06250000         24/512
   7:     0.31250000    0.18750000   -0.18750000         24/512
   8:     0.31250000    0.31250000   -0.31250000          6/512
   9:     0.31250000    0.31250000    0.18750000         12/512
          ...
  25:     0.43750000    0.43750000    0.43750000          8/512

Wave functions: Plane wave expansion
  Cutoff energy: 400.000 eV
  Number of coefficients (min, max): 173, 190
  Using FFTW library
  Eigensolver: None  MatrixOperator buffer_size: default value or 
                              see value of nblock in input file
Diagonalizer layout: Serial LAPACKOrthonormalizer layout: Serial LAPACK 

Davidson(niter=1, smin=None, normalize=True) 

Densities:
  Coarse grid: 9*9*9 grid
  Fine grid: 18*18*18 grid
  Total Charge: 0.000000 

Density mixing:
  Method: separate
  Backend: pulay
  Linear mixing parameter: 0.01
  Mixing with 11 old densities
  Damping of long wave oscillations: 100 

Hamiltonian:
  XC and Coulomb potentials evaluated on a 18*18*18 grid
  Using the PBE Exchange-Correlation functional
 

Memory estimate:
  Process memory now: 926.07 MiB
  Calculator: 1.97 MiB
    Density: 0.55 MiB
      Arrays: 0.19 MiB
      Localized functions: 0.11 MiB
      Mixer: 0.24 MiB
    Hamiltonian: 0.15 MiB
      Arrays: 0.14 MiB
      XC: 0.00 MiB
      Poisson: 0.00 MiB
      vbar: 0.00 MiB
    Wavefunctions: 1.27 MiB
      Arrays psit_nG: 0.60 MiB
      Eigensolver: 0.03 MiB
      Projections: 0.04 MiB
      Projectors: 0.51 MiB
      Overlap op: 0.01 MiB
      PW-descriptor: 0.08 MiB

Total number of cores used: 1

Number of atoms: 1
Number of atomic orbitals: 4
Number of bands in calculation: 4
Bands to converge: occupied states only
Number of valence electrons: 7

... initialized

Initializing position-dependent things.

Density initialized from atomic densities
Creating initial wave functions:
  4 bands from LCAO basis set

                
                
                
       F        
                
                
                
                

Positions:
   0 F      0.000000    0.000000    0.000000

Unit cell:
           periodic     x           y           z      points  spacing
  1. axis:    yes   -1.357000    1.357000    1.357000     9     0.2132
  2. axis:    yes    1.357000   -1.357000    1.357000     9     0.2132
  3. axis:    yes    1.357000    1.357000   -1.357000     9     0.2132

  Lengths:   2.350393   2.350393   2.350393
  Angles:  109.471221 109.471221 109.471221

Effective grid spacing dv^(1/3) = 0.2393

                     log10-error:    total        iterations:
           time      wfs    density  energy       fermi  poisson  magmom
iter:   1  14:21:35  +0.33   +inf     0.341630    3               -0.0000
iter:   2  14:21:35  -1.06   +inf     0.336257    2               +0.0000
iter:   3  14:21:36  -1.97   +inf     0.335529    2               -0.0000
iter:   4  14:21:36  -2.92  -1.75     0.335662    2               -0.0000
iter:   5  14:21:37  -3.46  -1.75     0.335044    3               -0.0000
iter:   6  14:21:37  -1.38  -1.74     0.339312    4               +0.0000
iter:   7  14:21:38  -1.00  -1.94     0.320565    33              -0.0000
iter:   8  14:21:38  -2.09  -2.01     0.320088    2               -0.0000
iter:   9  14:21:39  -1.58  -1.99     0.327572    32              +0.0000
iter:  10  14:21:39  -2.33  -2.63     0.327749    6               +0.0000
iter:  11  14:21:40  -3.21  -3.18     0.327772    4               -0.0000
iter:  12  14:21:41  -4.64  -3.16     0.327770    2               -0.0000
iter:  13  14:21:41  -5.24  -3.14     0.327779    3               -0.0006
iter:  14  14:21:42  -1.98  -3.21     0.326211    6               -0.0256
iter:  15  14:21:42  -1.87  -2.36     0.327853    4               -0.0001
iter:  16  14:21:43  -3.12  -3.57     0.327803    3               +0.0001
iter:  17  14:21:43  -3.74  -3.60     0.327803    3               -0.0000
iter:  18  14:21:44  -4.55  -3.63     0.327801    3               +0.0001
iter:  19  14:21:44  -4.76  -3.62     0.327798    2               +0.0017
iter:  20  14:21:45  -4.34  -3.44     0.327797    3               +0.0002
iter:  21  14:21:45  -5.07  -3.70     0.327795    3               -0.0007
iter:  22  14:21:46  -5.09  -3.80     0.327799    3               +0.0003
iter:  23  14:21:46  -3.88  -4.07     0.327771    3               -0.0020
iter:  24  14:21:47  -4.42  -3.34     0.327786    2               -0.0014
iter:  25  14:21:47  -4.46  -3.49     0.327800    3               -0.0011
iter:  26  14:21:48  -5.54  -3.87     0.327800    2               -0.0011
iter:  27  14:21:48  -6.07  -3.87     0.327801    2               -0.0009
iter:  28  14:21:49  -5.60  -3.97     0.327802    2               -0.0001
iter:  29  14:21:49  -6.65  -4.53     0.327802    2               -0.0002
iter:  30  14:21:50  -6.56  -4.40     0.327802    2               -0.0005
iter:  31  14:21:50  -6.05  -4.21     0.327802    2               -0.0000
iter:  32  14:21:51  -5.61  -4.36     0.327802    2               -0.0002
iter:  33  14:21:51  -5.47  -4.11     0.327802    2               -0.0008
iter:  34  14:21:52  -6.14  -3.96     0.327802    2               -0.0006
iter:  35  14:21:52  -7.22  -4.07     0.327802    2               -0.0007
iter:  36  14:21:53  -5.87  -4.05     0.327802    2               -0.0001
iter:  37  14:21:53  -6.56  -4.64     0.327802    2               +0.0001
iter:  38  14:21:54  -6.06  -4.83     0.327802    2               -0.0003
iter:  39  14:21:54  -6.25  -4.46     0.327802    2               -0.0000
iter:  40  14:21:55  -6.66  -4.66     0.327802    2               +0.0003
iter:  41  14:21:55  -6.53  -4.43     0.327802    2               -0.0002
iter:  42  14:21:56  -7.22  -4.64     0.327802    2               -0.0001
iter:  43  14:21:57  -6.04  -4.72     0.327802    2               +0.0002
iter:  44  14:21:57  -5.70  -4.54     0.327802    2               +0.0001
iter:  45  14:21:58  -5.41  -4.31     0.327802    2               -0.0000
iter:  46  14:21:58  -5.81  -5.04     0.327802    2               -0.0003
iter:  47  14:21:59  -5.55  -4.50     0.327802    2               +0.0002
iter:  48  14:21:59  -6.91  -4.77     0.327802    2               -0.0000
iter:  49  14:22:00  -7.69  -5.40     0.327802    2               -0.0000

Converged after 49 iterations.

Dipole moment: (-0.000000, -0.000000, 0.000000) |e|*Ang

Total magnetic moment: -0.000021
Local magnetic moments:
   0 F  -0.000003

Energy contributions relative to reference atoms: (reference = -2714.080785)

Kinetic:         -4.519320
Potential:       +4.303471
External:        +0.000000
XC:              -0.425809
Entropy (-ST):   -0.006712
Local:           +0.972816
--------------------------
Free energy:     +0.324446
Extrapolated:    +0.327802

Spin contamination: 0.000000 electrons
Fermi level: -2.10989

Warning: Showing only first 2 kpts
                      Up                     Down
 Kpt  Band  Eigenvalues  Occupancy  Eigenvalues  Occupancy
  0     1     -2.07186    0.00152     -2.07187    0.00152
  0     2     -1.80333    0.00000     -1.80334    0.00000
  0     3     -1.77369    0.00000     -1.77369    0.00000

  1     1     -2.83270    0.01562     -2.83270    0.01562
  1     2     -1.89738    0.00000     -1.89739    0.00000
  1     3     -1.84153    0.00000     -1.84154    0.00000


Input parameters:
  convergence: {bands: all}
  eigensolver: {name: cg,
                niter: 5}
  fixdensity: True
  kpts: {npoints: 50,
         path: GHNGP}
  nbands: -4
  symmetry: off

Initialize ...

F-setup:
  name: Fluorine
  id: 9cd46ba2a61e170ad72278be75b55cc0
  Z: 9
  valence: 7
  core: 2
  charge: 0.0
  file: /usr/share/gpaw-setups/F.PBE.gz
  cutoffs: 0.64(comp), 1.14(filt), 0.74(core), lmax=2
  valence states:
                energy  radius
    2s(2.00)   -29.898   0.635
    2p(5.00)   -11.110   0.635
    *s          -2.687   0.635
    *p          16.102   0.635
    *d           0.000   0.635

  Using partial waves for F as LCAO basis

Reference energy: -2714.080785

Spin-polarized calculation.
Magnetic moment:  0.000000

Occupation numbers:
  Fixed Fermi level
  Fermi-Dirac: width=0.0200 eV

Convergence criteria:
  Maximum total energy change: 0.0005 eV / electron
  Maximum integral of absolute density change: 0.0001 electrons
  Maximum integral of absolute eigenstate change: 4e-08 eV^2
  Maximum number of iterations: 1500

Symmetries present (total): 1

  ( 1  0  0)
  ( 0  1  0)
  ( 0  0  1)

50 k-points
50 k-points in the irreducible part of the Brillouin zone
       k-points in crystal coordinates                weights
   0:     0.00000000    0.00000000    0.00000000          1/50
   1:     0.03571429   -0.03571429    0.03571429          1/50
   2:     0.07142857   -0.07142857    0.07142857          1/50
   3:     0.10714286   -0.10714286    0.10714286          1/50
   4:     0.14285714   -0.14285714    0.14285714          1/50
   5:     0.17857143   -0.17857143    0.17857143          1/50
   6:     0.21428571   -0.21428571    0.21428571          1/50
   7:     0.25000000   -0.25000000    0.25000000          1/50
   8:     0.28571429   -0.28571429    0.28571429          1/50
   9:     0.32142857   -0.32142857    0.32142857          1/50
          ...
  49:     0.25000000    0.25000000    0.25000000          1/50

Wave functions: Plane wave expansion
  Cutoff energy: 400.000 eV
  Number of coefficients (min, max): 174, 188
  Using FFTW library
  Eigensolver: None  MatrixOperator buffer_size: default value or 
                              see value of nblock in input file
Diagonalizer layout: Serial LAPACKOrthonormalizer layout: Serial LAPACK 

CG(niter=5, rtol=3.0e-01) 

No density mixing

Memory estimate:
  Process memory now: 977.54 MiB
  Calculator: 4.00 MiB
    Density: 0.55 MiB
      Arrays: 0.19 MiB
      Localized functions: 0.11 MiB
      Mixer: 0.24 MiB
    Hamiltonian: 0.15 MiB
      Arrays: 0.14 MiB
      XC: 0.00 MiB
      Poisson: 0.00 MiB
      vbar: 0.00 MiB
    Wavefunctions: 3.31 MiB
      Arrays psit_nG: 2.01 MiB
      Eigensolver: 0.03 MiB
      Projections: 0.14 MiB
      Projectors: 0.97 MiB
      Overlap op: 0.02 MiB
      PW-descriptor: 0.13 MiB

Total number of cores used: 1

Number of atoms: 1
Number of atomic orbitals: 4
Number of bands in calculation: 7
Bands to converge: all
Number of valence electrons: 7

... initialized

Initializing position-dependent things.

Creating initial wave functions:
  4 bands from LCAO basis set
  3 bands from random numbers

                
                
                
       F        
                
                
                
                

Positions:
   0 F      0.000000    0.000000    0.000000

Unit cell:
           periodic     x           y           z      points  spacing
  1. axis:    yes   -1.357000    1.357000    1.357000     9     0.2132
  2. axis:    yes    1.357000   -1.357000    1.357000     9     0.2132
  3. axis:    yes    1.357000    1.357000   -1.357000     9     0.2132

  Lengths:   2.350393   2.350393   2.350393
  Angles:  109.471221 109.471221 109.471221

Effective grid spacing dv^(1/3) = 0.2393

                     log10-error:    total        iterations:
           time      wfs    density  energy       fermi  poisson  magmom
iter:   1  14:22:04  +3.85            1.559955    5               -0.0000
iter:   2  14:22:06  +2.81            1.552847    5               -0.0000
iter:   3  14:22:09  +1.90            1.552327    5               -0.0000
iter:   4  14:22:11  +1.03            1.552306    5               -0.0000
iter:   5  14:22:13  +0.18            1.552305    5               -0.0000
iter:   6  14:22:15  -0.56            1.552305    5               -0.0000
iter:   7  14:22:17  -0.81            1.552305    5               -0.0000
iter:   8  14:22:19  -1.13            1.552305    5               -0.0000
iter:   9  14:22:20  -1.62            1.552305    5               -0.0000
iter:  10  14:22:21  -2.18            1.552305    5               -0.0000
iter:  11  14:22:23  -2.51            1.552305    5               -0.0000
iter:  12  14:22:24  -2.77            1.552305    5               -0.0000
iter:  13  14:22:25  -2.86            1.552305    5               -0.0000
iter:  14  14:22:26  -2.86            1.552305    5               -0.0000
iter:  15  14:22:26  -3.19            1.552305    5               -0.0000
iter:  16  14:22:27  -3.38            1.552305    5               -0.0000
iter:  17  14:22:28  -3.59            1.552305    5               -0.0000
iter:  18  14:22:29  -3.87            1.552305    5               -0.0000
iter:  19  14:22:29  -3.93            1.552305    5               -0.0000
iter:  20  14:22:30  -4.56            1.552305    5               -0.0000
iter:  21  14:22:31  -4.41            1.552305    5               -0.0000
iter:  22  14:22:31  -4.47            1.552305    5               -0.0000
iter:  23  14:22:32  -4.52            1.552305    5               -0.0000
iter:  24  14:22:32  -4.38            1.552305    5               -0.0000
iter:  25  14:22:33  -4.91            1.552305    5               -0.0000
iter:  26  14:22:33  -4.66            1.552305    5               -0.0000
iter:  27  14:22:34  -4.73            1.552305    5               -0.0000
iter:  28  14:22:35  -4.98            1.552305    5               -0.0000
iter:  29  14:22:35  -5.25            1.552305    5               -0.0000
iter:  30  14:22:36  -4.61            1.552305    5               -0.0000
iter:  31  14:22:36  -4.77            1.552305    5               -0.0000
iter:  32  14:22:37  -5.41            1.552305    5               -0.0000
iter:  33  14:22:37  -4.59            1.552305    5               -0.0000
iter:  34  14:22:38  -4.83            1.552305    5               -0.0000
iter:  35  14:22:38  -5.37            1.552305    5               -0.0000
iter:  36  14:22:39  -5.33            1.552305    5               -0.0000
iter:  37  14:22:39  -5.51            1.552305    5               -0.0000
iter:  38  14:22:40  -5.62            1.552305    5               -0.0000
iter:  39  14:22:40  -5.95            1.552305    5               -0.0000
iter:  40  14:22:41  -6.01            1.552305    5               -0.0000
iter:  41  14:22:41  -6.16            1.552305    5               -0.0000
iter:  42  14:22:42  -6.17            1.552305    5               -0.0000
iter:  43  14:22:42  -5.86            1.552305    5               -0.0000
iter:  44  14:22:43  -6.30            1.552305    5               -0.0000
iter:  45  14:22:43  -6.16            1.552305    5               -0.0000
iter:  46  14:22:44  -6.13            1.552305    5               -0.0000
iter:  47  14:22:44  -6.26            1.552305    5               -0.0000
iter:  48  14:22:45  -6.30            1.552305    5               -0.0000
iter:  49  14:22:45  -5.46            1.552305    5               -0.0000
iter:  50  14:22:46  -6.26            1.552305    5               -0.0000
iter:  51  14:22:46  -6.11            1.552305    5               -0.0000
iter:  52  14:22:47  -6.04            1.552305    5               -0.0000
iter:  53  14:22:47  -4.70            1.552305    5               -0.0000
iter:  54  14:22:48  -5.90            1.552305    5               -0.0000
iter:  55  14:22:48  -6.15            1.552305    5               -0.0000
iter:  56  14:22:49  -5.81            1.552305    5               -0.0000
iter:  57  14:22:49  -4.85            1.552305    5               -0.0000
iter:  58  14:22:49  -5.67            1.552305    5               -0.0000
iter:  59  14:22:50  -6.22            1.552305    5               -0.0000
iter:  60  14:22:50  -6.34            1.552305    5               -0.0000
iter:  61  14:22:51  -6.35            1.552305    5               -0.0000
iter:  62  14:22:51  -6.22            1.552305    5               -0.0000
iter:  63  14:22:52  -5.91            1.552305    5               -0.0000
iter:  64  14:22:52  -5.85            1.552305    5               -0.0000
iter:  65  14:22:53  -6.28            1.552305    5               -0.0000
iter:  66  14:22:53  -6.57            1.552305    5               -0.0000
iter:  67  14:22:54  -6.37            1.552305    5               -0.0000
iter:  68  14:22:54  -6.50            1.552305    5               -0.0000
iter:  69  14:22:54  -6.48            1.552305    5               -0.0000
iter:  70  14:22:55  -6.23            1.552305    5               -0.0000
iter:  71  14:22:55  -6.40            1.552305    5               -0.0000
iter:  72  14:22:56  -6.23            1.552305    5               -0.0000
iter:  73  14:22:56  -5.96            1.552305    5               -0.0000
iter:  74  14:22:57  -6.67            1.552305    5               -0.0000
iter:  75  14:22:57  -6.27            1.552305    5               -0.0000
iter:  76  14:22:58  -6.72            1.552305    5               -0.0000
iter:  77  14:22:58  -6.49            1.552305    5               -0.0000
iter:  78  14:22:58  -6.58            1.552305    5               -0.0000
iter:  79  14:22:59  -6.06            1.552305    5               -0.0000
iter:  80  14:22:59  -6.62            1.552305    5               -0.0000
iter:  81  14:23:00  -6.58            1.552305    5               -0.0000
iter:  82  14:23:00  -5.81            1.552305    5               -0.0000
iter:  83  14:23:01  -6.39            1.552305    5               -0.0000
iter:  84  14:23:01  -6.86            1.552305    5               -0.0000
iter:  85  14:23:01  -6.43            1.552305    5               -0.0000
iter:  86  14:23:02  -5.76            1.552305    5               -0.0000
iter:  87  14:23:02  -6.50            1.552305    5               -0.0000
iter:  88  14:23:03  -6.78            1.552305    5               -0.0000
iter:  89  14:23:03  -5.60            1.552305    5               -0.0000
iter:  90  14:23:04  -6.71            1.552305    5               -0.0000
iter:  91  14:23:04  -6.58            1.552305    5               -0.0000
iter:  92  14:23:04  -5.65            1.552305    5               -0.0000
iter:  93  14:23:05  -6.36            1.552305    5               -0.0000
iter:  94  14:23:05  -6.82            1.552305    5               -0.0000
iter:  95  14:23:06  -6.33            1.552305    5               -0.0000
iter:  96  14:23:06  -6.15            1.552305    5               -0.0000
iter:  97  14:23:07  -6.43            1.552305    5               -0.0000
iter:  98  14:23:07  -6.61            1.552305    5               -0.0000
iter:  99  14:23:07  -6.55            1.552305    5               -0.0000
iter: 100  14:23:08  -6.73            1.552305    5               -0.0000
iter: 101  14:23:08  -6.53            1.552305    5               -0.0000
iter: 102  14:23:09  -6.74            1.552305    5               -0.0000
iter: 103  14:23:09  -6.36            1.552305    5               -0.0000
iter: 104  14:23:10  -6.46            1.552305    5               -0.0000
iter: 105  14:23:10  -6.58            1.552305    5               -0.0000
iter: 106  14:23:10  -6.29            1.552305    5               -0.0000
iter: 107  14:23:11  -6.62            1.552305    5               -0.0000
iter: 108  14:23:11  -6.97            1.552305    5               -0.0000
iter: 109  14:23:12  -6.53            1.552305    5               -0.0000
iter: 110  14:23:12  -6.88            1.552305    5               -0.0000
iter: 111  14:23:13  -6.47            1.552305    5               -0.0000
iter: 112  14:23:13  -6.88            1.552305    5               -0.0000
iter: 113  14:23:13  -6.67            1.552305    5               -0.0000
iter: 114  14:23:14  -6.81            1.552305    5               -0.0000
iter: 115  14:23:14  -6.75            1.552305    5               -0.0000
iter: 116  14:23:15  -6.87            1.552305    5               -0.0000
iter: 117  14:23:15  -6.67            1.552305    5               -0.0000
iter: 118  14:23:16  -6.87            1.552305    5               -0.0000
iter: 119  14:23:16  -6.77            1.552305    5               -0.0000
iter: 120  14:23:16  -6.46            1.552305    5               -0.0000
iter: 121  14:23:17  -6.73            1.552305    5               -0.0000
iter: 122  14:23:17  -6.89            1.552305    5               -0.0000
iter: 123  14:23:18  -6.59            1.552305    5               -0.0000
iter: 124  14:23:18  -6.87            1.552305    5               -0.0000
iter: 125  14:23:19  -6.77            1.552305    5               -0.0000
iter: 126  14:23:19  -5.63            1.552305    5               -0.0000
iter: 127  14:23:19  -6.64            1.552305    5               -0.0000
iter: 128  14:23:20  -6.93            1.552305    5               -0.0000
iter: 129  14:23:20  -6.81            1.552305    5               -0.0000
iter: 130  14:23:21  -6.86            1.552305    5               -0.0000
iter: 131  14:23:21  -6.82            1.552305    5               -0.0000
iter: 132  14:23:22  -6.53            1.552305    5               -0.0000
iter: 133  14:23:22  -6.82            1.552305    5               -0.0000
iter: 134  14:23:22  -6.99            1.552305    5               -0.0000
iter: 135  14:23:23  -6.82            1.552305    5               -0.0000
iter: 136  14:23:23  -6.70            1.552305    5               -0.0000
iter: 137  14:23:24  -6.69            1.552305    5               -0.0000
iter: 138  14:23:24  -7.09            1.552305    5               -0.0000
iter: 139  14:23:25  -6.84            1.552305    5               -0.0000
iter: 140  14:23:25  -6.76            1.552305    5               -0.0000
iter: 141  14:23:25  -6.50            1.552305    5               -0.0000
iter: 142  14:23:26  -6.83            1.552305    5               -0.0000
iter: 143  14:23:26  -6.29            1.552305    5               -0.0000
iter: 144  14:23:27  -6.86            1.552305    5               -0.0000
iter: 145  14:23:27  -6.66            1.552305    5               -0.0000
iter: 146  14:23:27  -7.09            1.552305    5               -0.0000
iter: 147  14:23:28  -6.84            1.552305    5               -0.0000
iter: 148  14:23:28  -7.00            1.552305    5               -0.0000
iter: 149  14:23:29  -6.13            1.552305    5               -0.0000
iter: 150  14:23:29  -7.07            1.552305    5               -0.0000
iter: 151  14:23:30  -6.92            1.552305    5               -0.0000
iter: 152  14:23:30  -6.80            1.552305    5               -0.0000
iter: 153  14:23:31  -6.27            1.552305    5               -0.0000
iter: 154  14:23:31  -7.14            1.552305    5               -0.0000
iter: 155  14:23:31  -6.91            1.552305    5               -0.0000
iter: 156  14:23:32  -6.86            1.552305    5               -0.0000
iter: 157  14:23:32  -6.44            1.552305    5               -0.0000
iter: 158  14:23:33  -7.10            1.552305    5               -0.0000
iter: 159  14:23:33  -6.91            1.552305    5               -0.0000
iter: 160  14:23:33  -6.89            1.552305    5               -0.0000
iter: 161  14:23:34  -6.55            1.552305    5               -0.0000
iter: 162  14:23:34  -6.79            1.552305    5               -0.0000
iter: 163  14:23:35  -6.91            1.552305    5               -0.0000
iter: 164  14:23:35  -7.11            1.552305    5               -0.0000
iter: 165  14:23:36  -6.86            1.552305    5               -0.0000
iter: 166  14:23:36  -5.82            1.552305    5               -0.0000
iter: 167  14:23:36  -6.95            1.552305    5               -0.0000
iter: 168  14:23:37  -7.12            1.552305    5               -0.0000
iter: 169  14:23:37  -5.99            1.552305    5               -0.0000
iter: 170  14:23:38  -5.69            1.552305    5               -0.0000
iter: 171  14:23:38  -6.81            1.552305    5               -0.0000
iter: 172  14:23:39  -6.20            1.552305    5               -0.0000
iter: 173  14:23:39  -5.81            1.552305    5               -0.0000
iter: 174  14:23:39  -6.20            1.552305    5               -0.0000
iter: 175  14:23:40  -6.28            1.552305    5               -0.0000
iter: 176  14:23:40  -6.75            1.552305    5               -0.0000
iter: 177  14:23:41  -7.02            1.552305    5               -0.0000
iter: 178  14:23:41  -7.11            1.552305    5               -0.0000
iter: 179  14:23:41  -6.21            1.552305    5               -0.0000
iter: 180  14:23:42  -6.79            1.552305    5               -0.0000
iter: 181  14:23:42  -7.06            1.552305    5               -0.0000
iter: 182  14:23:43  -5.69            1.552305    5               -0.0000
iter: 183  14:23:43  -6.89            1.552305    5               -0.0000
iter: 184  14:23:44  -6.83            1.552305    5               -0.0000
iter: 185  14:23:44  -7.08            1.552305    5               -0.0000
iter: 186  14:23:44  -7.04            1.552305    5               -0.0000
iter: 187  14:23:45  -7.08            1.552305    5               -0.0000
iter: 188  14:23:45  -6.74            1.552305    5               -0.0000
iter: 189  14:23:46  -7.08            1.552305    5               -0.0000
iter: 190  14:23:46  -7.18            1.552305    5               -0.0000
iter: 191  14:23:47  -7.06            1.552305    5               -0.0000
iter: 192  14:23:47  -6.45            1.552305    5               -0.0000
iter: 193  14:23:47  -7.12            1.552305    5               -0.0000
iter: 194  14:23:48  -7.16            1.552305    5               -0.0000
iter: 195  14:23:48  -5.42            1.552305    5               -0.0000
iter: 196  14:23:49  -6.22            1.552305    5               -0.0000
iter: 197  14:23:49  -7.11            1.552305    5               -0.0000
iter: 198  14:23:49  -7.14            1.552305    5               -0.0000
iter: 199  14:23:50  -6.60            1.552305    5               -0.0000
iter: 200  14:23:50  -7.11            1.552305    5               -0.0000
iter: 201  14:23:51  -6.99            1.552305    5               -0.0000
iter: 202  14:23:51  -7.05            1.552305    5               -0.0000
iter: 203  14:23:52  -7.16            1.552305    5               -0.0000
iter: 204  14:23:52  -7.14            1.552305    5               -0.0000
iter: 205  14:23:52  -7.15            1.552305    5               -0.0000
iter: 206  14:23:53  -7.11            1.552305    5               -0.0000
iter: 207  14:23:53  -7.09            1.552305    5               -0.0000
iter: 208  14:23:54  -7.02            1.552305    5               -0.0000
iter: 209  14:23:54  -6.01            1.552305    5               -0.0000
iter: 210  14:23:54  -7.14            1.552305    5               -0.0000
iter: 211  14:23:55  -7.03            1.552305    5               -0.0000
iter: 212  14:23:55  -6.69            1.552305    5               -0.0000
iter: 213  14:23:56  -6.78            1.552305    5               -0.0000
iter: 214  14:23:56  -7.26            1.552305    5               -0.0000
iter: 215  14:23:57  -7.04            1.552305    5               -0.0000
iter: 216  14:23:57  -7.05            1.552305    5               -0.0000
iter: 217  14:23:57  -7.06            1.552305    5               -0.0000
iter: 218  14:23:58  -7.09            1.552305    5               -0.0000
iter: 219  14:23:58  -6.37            1.552305    5               -0.0000
iter: 220  14:23:59  -7.04            1.552305    5               -0.0000
iter: 221  14:23:59  -7.12            1.552305    5               -0.0000
iter: 222  14:24:00  -7.19            1.552305    5               -0.0000
iter: 223  14:24:00  -6.83            1.552305    5               -0.0000
iter: 224  14:24:00  -7.27            1.552305    5               -0.0000
iter: 225  14:24:01  -6.95            1.552305    5               -0.0000
iter: 226  14:24:01  -5.68            1.552305    5               -0.0000
iter: 227  14:24:02  -6.42            1.552305    5               -0.0000
iter: 228  14:24:02  -6.81            1.552305    5               -0.0000
iter: 229  14:24:02  -6.20            1.552305    5               -0.0000
iter: 230  14:24:03  -6.80            1.552305    5               -0.0000
iter: 231  14:24:03  -7.08            1.552305    5               -0.0000
iter: 232  14:24:04  -7.18            1.552305    5               -0.0000
iter: 233  14:24:04  -6.74            1.552305    5               -0.0000
iter: 234  14:24:05  -7.11            1.552305    5               -0.0000
iter: 235  14:24:05  -7.16            1.552305    5               -0.0000
iter: 236  14:24:05  -6.69            1.552305    5               -0.0000
iter: 237  14:24:06  -6.25            1.552305    5               -0.0000
iter: 238  14:24:06  -7.20            1.552305    5               -0.0000
iter: 239  14:24:07  -7.18            1.552305    5               -0.0000
iter: 240  14:24:07  -6.93            1.552305    5               -0.0000
iter: 241  14:24:08  -7.21            1.552305    5               -0.0000
iter: 242  14:24:08  -7.08            1.552305    5               -0.0000
iter: 243  14:24:08  -6.30            1.552305    5               -0.0000
iter: 244  14:24:09  -6.98            1.552305    5               -0.0000
iter: 245  14:24:09  -7.22            1.552305    5               -0.0000
iter: 246  14:24:10  -6.82            1.552305    5               -0.0000
iter: 247  14:24:10  -7.29            1.552305    5               -0.0000
iter: 248  14:24:10  -7.03            1.552305    5               -0.0000
iter: 249  14:24:11  -6.77            1.552305    5               -0.0000
iter: 250  14:24:11  -7.14            1.552305    5               -0.0000
iter: 251  14:24:12  -7.28            1.552305    5               -0.0000
iter: 252  14:24:12  -7.15            1.552305    5               -0.0000
iter: 253  14:24:13  -7.18            1.552305    5               -0.0000
iter: 254  14:24:13  -7.11            1.552305    5               -0.0000
iter: 255  14:24:13  -7.25            1.552305    5               -0.0000
iter: 256  14:24:14  -7.17            1.552305    5               -0.0000
iter: 257  14:24:14  -7.30            1.552305    5               -0.0000
iter: 258  14:24:15  -7.12            1.552305    5               -0.0000
iter: 259  14:24:15  -6.72            1.552305    5               -0.0000
iter: 260  14:24:16  -7.13            1.552305    5               -0.0000
iter: 261  14:24:16  -6.85            1.552305    5               -0.0000
iter: 262  14:24:16  -6.82            1.552305    5               -0.0000
iter: 263  14:24:17  -7.26            1.552305    5               -0.0000
iter: 264  14:24:17  -7.08            1.552305    5               -0.0000
iter: 265  14:24:18  -6.02            1.552305    5               -0.0000
iter: 266  14:24:18  -7.20            1.552305    5               -0.0000
iter: 267  14:24:18  -7.18            1.552305    5               -0.0000
iter: 268  14:24:19  -6.84            1.552305    5               -0.0000
iter: 269  14:24:19  -7.17            1.552305    5               -0.0000
iter: 270  14:24:20  -7.12            1.552305    5               -0.0000
iter: 271  14:24:20  -6.97            1.552305    5               -0.0000
iter: 272  14:24:21  -7.36            1.552305    5               -0.0000
iter: 273  14:24:21  -6.90            1.552305    5               -0.0000
iter: 274  14:24:21  -7.37            1.552305    5               -0.0000
iter: 275  14:24:22  -7.29            1.552305    5               -0.0000
iter: 276  14:24:22  -7.31            1.552305    5               -0.0000
iter: 277  14:24:23  -6.99            1.552305    5               -0.0000
iter: 278  14:24:23  -6.95            1.552305    5               -0.0000
iter: 279  14:24:24  -7.33            1.552305    5               -0.0000
iter: 280  14:24:24  -7.32            1.552305    5               -0.0000
iter: 281  14:24:24  -6.71            1.552305    5               -0.0000
iter: 282  14:24:25  -6.92            1.552305    5               -0.0000
iter: 283  14:24:25  -7.42            1.552305    5               -0.0000

Converged after 283 iterations.

Dipole moment: (-0.000000, -0.000000, 0.000000) |e|*Ang

Total magnetic moment: -0.000024
Local magnetic moments:
   0 F  -0.000003

Energy contributions relative to reference atoms: (reference = -2714.080785)

Kinetic:         -3.293662
Potential:       +4.302894
External:        +0.000000
XC:              -0.426129
Entropy (-ST):   -0.007843
Local:           +0.973124
--------------------------
Free energy:     +1.548384
Extrapolated:    +1.552305

Spin contamination: 0.000000 electrons
Fixed Fermi level: -2.10989

Warning: Showing only first 2 kpts
                      Up                     Down
 Kpt  Band  Eigenvalues  Occupancy  Eigenvalues  Occupancy
  0     1     -1.68331    0.00002     -1.68332    0.00002
  0     2     -1.66937    0.00001     -1.66937    0.00001
  0     3     -1.62043    0.00000     -1.62044    0.00000
  0     4     11.59796    0.00000     11.59795    0.00000

  1     1     -1.84336    0.01543     -1.84337    0.01543
  1     2     -1.71686    0.00012     -1.71686    0.00012
  1     3     -1.67081    0.00001     -1.67082    0.00001
  1     4     11.75361    0.00000     11.75360    0.00000


Timing:                              incl.     excl.
-----------------------------------------------------------
Hamiltonian:                         0.210     0.001   0.0% |
 Atomic:                             0.172     0.002   0.0% |
  XC Correction:                     0.171     0.171   0.1% |
 Calculate atomic Hamiltonians:      0.002     0.002   0.0% |
 Communicate:                        0.000     0.000   0.0% |
 Initialize Hamiltonian:             0.000     0.000   0.0% |
 Poisson:                            0.000     0.000   0.0% |
 XC 3D grid:                         0.034     0.034   0.0% |
LCAO initialization:                 4.074     0.048   0.0% |
 LCAO eigensolver:                   3.045     0.015   0.0% |
  Calculate projections:             0.004     0.004   0.0% |
  DenseAtomicCorrection:             0.029     0.029   0.0% |
  Distribute overlap matrix:         0.006     0.006   0.0% |
  Orbital Layouts:                   0.027     0.027   0.0% |
  Potential matrix:                  0.216     0.216   0.1% |
  Sum over cells:                    2.748     2.748   1.6% ||
 LCAO to grid:                       0.324     0.324   0.2% |
 Set positions (LCAO WFS):           0.658     0.001   0.0% |
  Basic WFS set positions:           0.002     0.002   0.0% |
  Basis functions set positions:     0.000     0.000   0.0% |
  TCI: Calculate S, T, P:            0.655     0.655   0.4% |
PWDescriptor:                        0.015     0.015   0.0% |
Redistribute:                        0.000     0.000   0.0% |
SCF-cycle:                         167.370    35.364  20.3% |-------|
 CG:                                49.204    44.060  25.3% |---------|
  CG: orthonormalize:                5.145     3.025   1.7% ||
   CG: overlap:                      1.254     1.254   0.7% |
   CG: overlap2:                     0.866     0.866   0.5% |
 Davidson:                           9.661     5.979   3.4% ||
  calc. matrices:                    2.373     2.373   1.4% ||
  diagonalize:                       0.786     0.786   0.5% |
  rotate_psi:                        0.523     0.523   0.3% |
 Density:                            2.006     0.003   0.0% |
  Atomic density matrices:           0.244     0.244   0.1% |
  Mix:                               0.179     0.179   0.1% |
  Multipole moments:                 0.011     0.011   0.0% |
  Pseudo density:                    1.570     1.074   0.6% |
   Symmetrize density:               0.497     0.497   0.3% |
 Hamiltonian:                        8.402     0.025   0.0% |
  Atomic:                            7.335     0.043   0.0% |
   XC Correction:                    7.293     7.293   4.2% |-|
  Calculate atomic Hamiltonians:     0.059     0.059   0.0% |
  Communicate:                       0.000     0.000   0.0% |
  Poisson:                           0.007     0.007   0.0% |
  XC 3D grid:                        0.975     0.975   0.6% |
 Orthonormalize:                     0.118     0.010   0.0% |
  Band Layouts:                      0.008     0.003   0.0% |
   Inverse Cholesky:                 0.005     0.005   0.0% |
  calc_s_matrix:                     0.019     0.019   0.0% |
  projections:                       0.066     0.066   0.0% |
  rotate_psi:                        0.016     0.016   0.0% |
 Residuals:                         17.871    17.871  10.3% |---|
 Subspace diag:                     44.743     3.501   2.0% ||
  Band Layouts:                      6.360     1.009   0.6% |
   Diagonalize:                      4.620     4.620   2.7% ||
   Distribute results:               0.731     0.731   0.4% |
  calc_h_matrix:                    28.944    28.944  16.6% |------|
  rotate_psi:                        5.938     5.938   3.4% ||
Set symmetry:                        0.096     0.096   0.1% |
Other:                               2.156     2.156   1.2% |
-----------------------------------------------------------
Total:                                       173.922 100.0%

Date: Thu Feb 11 14:24:26 2021
element =  F
struct =  bcc
kpts =  (8,8,8)
element =  F
configuration =  [He] 2s2 2p5
valence =  ['2s', '2p']
occupations =  {'2s': 2, '2p': 5}
nls =  2p
rNum =  600
lmax =  p
*******************************************
Starting confinement parameter optimization
Adjustable parameters and initial values:
  F_2p.r0 : 2.154288
  F_2s.r0 : 2.154288
  F_n.r0 : 3.231432
*******************************************

OPT_VAL: 2.154287783454098   2.154287783454098   3.231431675181147
VCONF:
  F_2p : PowerConfinement(r0=2.154288, s=2.000000)
  F_2s : PowerConfinement(r0=2.154288, s=2.000000)
  F_n : PowerConfinement(r0=3.231432, s=2.000000)
RESIDUAL: 0.0

OPT_VAL: 2.3542877834540983   2.154287783454098   3.231431675181147
VCONF:
  F_2p : PowerConfinement(r0=2.354288, s=2.000000)
  F_2s : PowerConfinement(r0=2.154288, s=2.000000)
  F_n : PowerConfinement(r0=3.231432, s=2.000000)
RESIDUAL: 0.0

OPT_VAL: 2.154287783454098   2.3542877834540983   3.231431675181147
VCONF:
  F_2p : PowerConfinement(r0=2.154288, s=2.000000)
  F_2s : PowerConfinement(r0=2.354288, s=2.000000)
  F_n : PowerConfinement(r0=3.231432, s=2.000000)
RESIDUAL: 0.0

OPT_VAL: 2.154287783454098   2.154287783454098   3.4314316751811473
VCONF:
  F_2p : PowerConfinement(r0=2.154288, s=2.000000)
  F_2s : PowerConfinement(r0=2.154288, s=2.000000)
  F_n : PowerConfinement(r0=3.431432, s=2.000000)
RESIDUAL: 0.0

OPT_VAL: 2.179287783454098   2.154287783454098   3.231431675181147
VCONF:
  F_2p : PowerConfinement(r0=2.179288, s=2.000000)
  F_2s : PowerConfinement(r0=2.154288, s=2.000000)
  F_n : PowerConfinement(r0=3.231432, s=2.000000)
RESIDUAL: 0.0

OPT_VAL: 2.154287783454098   2.179287783454098   3.231431675181147
VCONF:
  F_2p : PowerConfinement(r0=2.154288, s=2.000000)
  F_2s : PowerConfinement(r0=2.179288, s=2.000000)
  F_n : PowerConfinement(r0=3.231432, s=2.000000)
RESIDUAL: 0.0

OPT_VAL: 2.154287783454098   2.154287783454098   3.256431675181147
VCONF:
  F_2p : PowerConfinement(r0=2.154288, s=2.000000)
  F_2s : PowerConfinement(r0=2.154288, s=2.000000)
  F_n : PowerConfinement(r0=3.256432, s=2.000000)
RESIDUAL: 0.0

OPT_VAL: 2.159287783454098   2.154287783454098   3.231431675181147
VCONF:
  F_2p : PowerConfinement(r0=2.159288, s=2.000000)
  F_2s : PowerConfinement(r0=2.154288, s=2.000000)
  F_n : PowerConfinement(r0=3.231432, s=2.000000)
RESIDUAL: 0.0

OPT_VAL: 2.154287783454098   2.159287783454098   3.231431675181147
VCONF:
  F_2p : PowerConfinement(r0=2.154288, s=2.000000)
  F_2s : PowerConfinement(r0=2.159288, s=2.000000)
  F_n : PowerConfinement(r0=3.231432, s=2.000000)
RESIDUAL: 0.0

OPT_VAL: 2.154287783454098   2.154287783454098   3.236431675181147
VCONF:
  F_2p : PowerConfinement(r0=2.154288, s=2.000000)
  F_2s : PowerConfinement(r0=2.154288, s=2.000000)
  F_n : PowerConfinement(r0=3.236432, s=2.000000)
RESIDUAL: 0.0

*******************************************
Optimization finished after 10 iterations
Adjustable parameters and final values:
  F_2p.r0 : 2.154288
  F_2s.r0 : 2.154288
  F_n.r0 : 3.231432
*******************************************

VCONF:
  F_2p : PowerConfinement(r0=2.154288, s=2.000000)
  F_2s : PowerConfinement(r0=2.154288, s=2.000000)
  F_n : PowerConfinement(r0=3.231432, s=2.000000)
