
     Program PWSCF v.6.0 (svn rev. 13079) starts on 25Feb2021 at 23:53:53 

     This program is part of the open-source Quantum ESPRESSO suite
     for quantum simulation of materials; please cite
         "P. Giannozzi et al., J. Phys.:Condens. Matter 21 395502 (2009);
          URL http://www.quantum-espresso.org", 
     in publications or presentations arising from this work. More details at
     http://www.quantum-espresso.org/quote

     Parallel version (MPI), running on     1 processors
     Reading input from espresso.pwi
Warning: card &IONS ignored
Warning: card / ignored
Warning: card &CELL ignored
Warning: card / ignored

     Current dimensions of program PWSCF are:
     Max number of different atomic species (ntypx) = 10
     Max number of k-points (npk) =  40000
     Max angular momentum in pseudopotentials (lmaxx) =  3
     Message from routine input:
     WARNING: "startingwfc" set to atomic+random may spoil restart

     Atomic positions and unit cell read from directory:
     ./pwscf.save/


     IMPORTANT: XC functional enforced from input :
     Exchange-correlation      = PBE ( 1  4  3  4 0 0)
     Any further DFT definition will be discarded
     Please, verify this is what you really want


     Subspace diagonalization in iterative solution of the eigenvalue problem:
     a serial algorithm will be used


     G-vector sticks info
     --------------------
     sticks:   dense  smooth     PW     G-vecs:    dense   smooth      PW
     Sum         619     483    159                 9597     6819    1253



     bravais-lattice index     =            0
     lattice parameter (alat)  =       6.3727  a.u.
     unit-cell volume          =     199.2299 (a.u.)^3
     number of atoms/cell      =            1
     number of atomic types    =            1
     number of electrons       =        12.00
     number of Kohn-Sham states=           10
     kinetic-energy cutoff     =      40.0000  Ry
     charge density cutoff     =     200.0000  Ry
     Exchange-correlation      = PBE ( 1  4  3  4 0 0)

     celldm(1)=   6.372729  celldm(2)=   0.000000  celldm(3)=   0.000000
     celldm(4)=   0.000000  celldm(5)=   0.000000  celldm(6)=   0.000000

     crystal axes: (cart. coord. in units of alat)
               a(1) = (  -0.577350   0.577350   0.577350 )  
               a(2) = (   0.577350  -0.577350   0.577350 )  
               a(3) = (   0.577350   0.577350  -0.577350 )  

     reciprocal axes: (cart. coord. in units 2 pi/alat)
               b(1) = (  0.000000  0.866025  0.866025 )  
               b(2) = (  0.866025  0.000000  0.866025 )  
               b(3) = (  0.866025  0.866025  0.000000 )  


     PseudoPot. # 1 for Hg read from file:
     /home/inukai/tango/tests/1element/qe_fit_v2_Hg/../pseudo/hg_pbe_v1.uspp.F.UPF
     MD5 check sum: 8f42caffe07f7fd9c0a564347f8c5498
     Pseudo is Ultrasoft + core correction, Zval = 12.0
     Generated by new atomic code, or converted to UPF format
     Using radial grid of  985 points,  6 beta functions with: 
                l(1) =   0
                l(2) =   0
                l(3) =   1
                l(4) =   1
                l(5) =   2
                l(6) =   2
     Q(r) pseudized with  8 coefficients,  rinner =    2.000   2.000   2.000
                                                       2.000   2.000

     atomic species   valence    mass     pseudopotential
        Hg            12.00   200.59200     Hg( 1.00)

     48 Sym. Ops., with inversion, found


                                    s                        frac. trans.

      isym =  1     identity                                     

 cryst.   s( 1) = (     1          0          0      )
                  (     0          1          0      )
                  (     0          0          1      )

 cart.    s( 1) = (  1.0000000  0.0000000  0.0000000 )
                  (  0.0000000  1.0000000  0.0000000 )
                  (  0.0000000  0.0000000  1.0000000 )


      isym =  2     180 deg rotation - cart. axis [0,0,1]        

 cryst.   s( 2) = (     0          1          0      )
                  (     1          0          0      )
                  (    -1         -1         -1      )

 cart.    s( 2) = ( -1.0000000  0.0000000  0.0000000 )
                  (  0.0000000 -1.0000000  0.0000000 )
                  (  0.0000000  0.0000000  1.0000000 )


      isym =  3     180 deg rotation - cart. axis [0,1,0]        

 cryst.   s( 3) = (     0          0          1      )
                  (    -1         -1         -1      )
                  (     1          0          0      )

 cart.    s( 3) = ( -1.0000000  0.0000000  0.0000000 )
                  (  0.0000000  1.0000000  0.0000000 )
                  (  0.0000000  0.0000000 -1.0000000 )


      isym =  4     180 deg rotation - cart. axis [1,0,0]        

 cryst.   s( 4) = (    -1         -1         -1      )
                  (     0          0          1      )
                  (     0          1          0      )

 cart.    s( 4) = (  1.0000000  0.0000000  0.0000000 )
                  (  0.0000000 -1.0000000  0.0000000 )
                  (  0.0000000  0.0000000 -1.0000000 )


      isym =  5     180 deg rotation - cart. axis [1,1,0]        

 cryst.   s( 5) = (    -1          0          0      )
                  (     0         -1          0      )
                  (     1          1          1      )

 cart.    s( 5) = (  0.0000000  1.0000000  0.0000000 )
                  (  1.0000000  0.0000000  0.0000000 )
                  (  0.0000000  0.0000000 -1.0000000 )


      isym =  6     180 deg rotation - cart. axis [1,-1,0]       

 cryst.   s( 6) = (     0         -1          0      )
                  (    -1          0          0      )
                  (     0          0         -1      )

 cart.    s( 6) = (  0.0000000 -1.0000000  0.0000000 )
                  ( -1.0000000  0.0000000  0.0000000 )
                  (  0.0000000  0.0000000 -1.0000000 )


      isym =  7      90 deg rotation - cart. axis [0,0,-1]       

 cryst.   s( 7) = (     1          1          1      )
                  (     0          0         -1      )
                  (    -1          0          0      )

 cart.    s( 7) = (  0.0000000  1.0000000  0.0000000 )
                  ( -1.0000000  0.0000000  0.0000000 )
                  (  0.0000000  0.0000000  1.0000000 )


      isym =  8      90 deg rotation - cart. axis [0,0,1]        

 cryst.   s( 8) = (     0          0         -1      )
                  (     1          1          1      )
                  (     0         -1          0      )

 cart.    s( 8) = (  0.0000000 -1.0000000  0.0000000 )
                  (  1.0000000  0.0000000  0.0000000 )
                  (  0.0000000  0.0000000  1.0000000 )


      isym =  9     180 deg rotation - cart. axis [1,0,1]        

 cryst.   s( 9) = (    -1          0          0      )
                  (     1          1          1      )
                  (     0          0         -1      )

 cart.    s( 9) = (  0.0000000  0.0000000  1.0000000 )
                  (  0.0000000 -1.0000000  0.0000000 )
                  (  1.0000000  0.0000000  0.0000000 )


      isym = 10     180 deg rotation - cart. axis [-1,0,1]       

 cryst.   s(10) = (     0          0         -1      )
                  (     0         -1          0      )
                  (    -1          0          0      )

 cart.    s(10) = (  0.0000000  0.0000000 -1.0000000 )
                  (  0.0000000 -1.0000000  0.0000000 )
                  ( -1.0000000  0.0000000  0.0000000 )


      isym = 11      90 deg rotation - cart. axis [0,1,0]        

 cryst.   s(11) = (     1          1          1      )
                  (    -1          0          0      )
                  (     0         -1          0      )

 cart.    s(11) = (  0.0000000  0.0000000  1.0000000 )
                  (  0.0000000  1.0000000  0.0000000 )
                  ( -1.0000000  0.0000000  0.0000000 )


      isym = 12      90 deg rotation - cart. axis [0,-1,0]       

 cryst.   s(12) = (     0         -1          0      )
                  (     0          0         -1      )
                  (     1          1          1      )

 cart.    s(12) = (  0.0000000  0.0000000 -1.0000000 )
                  (  0.0000000  1.0000000  0.0000000 )
                  (  1.0000000  0.0000000  0.0000000 )


      isym = 13     180 deg rotation - cart. axis [0,1,1]        

 cryst.   s(13) = (     1          1          1      )
                  (     0         -1          0      )
                  (     0          0         -1      )

 cart.    s(13) = ( -1.0000000  0.0000000  0.0000000 )
                  (  0.0000000  0.0000000  1.0000000 )
                  (  0.0000000  1.0000000  0.0000000 )


      isym = 14     180 deg rotation - cart. axis [0,1,-1]       

 cryst.   s(14) = (    -1          0          0      )
                  (     0          0         -1      )
                  (     0         -1          0      )

 cart.    s(14) = ( -1.0000000  0.0000000  0.0000000 )
                  (  0.0000000  0.0000000 -1.0000000 )
                  (  0.0000000 -1.0000000  0.0000000 )


      isym = 15      90 deg rotation - cart. axis [-1,0,0]       

 cryst.   s(15) = (     0         -1          0      )
                  (     1          1          1      )
                  (    -1          0          0      )

 cart.    s(15) = (  1.0000000  0.0000000  0.0000000 )
                  (  0.0000000  0.0000000  1.0000000 )
                  (  0.0000000 -1.0000000  0.0000000 )


      isym = 16      90 deg rotation - cart. axis [1,0,0]        

 cryst.   s(16) = (     0          0         -1      )
                  (    -1          0          0      )
                  (     1          1          1      )

 cart.    s(16) = (  1.0000000  0.0000000  0.0000000 )
                  (  0.0000000  0.0000000 -1.0000000 )
                  (  0.0000000  1.0000000  0.0000000 )


      isym = 17     120 deg rotation - cart. axis [-1,-1,-1]     

 cryst.   s(17) = (     0          0          1      )
                  (     1          0          0      )
                  (     0          1          0      )

 cart.    s(17) = (  0.0000000  1.0000000  0.0000000 )
                  (  0.0000000  0.0000000  1.0000000 )
                  (  1.0000000  0.0000000  0.0000000 )


      isym = 18     120 deg rotation - cart. axis [-1,1,1]       

 cryst.   s(18) = (     1          0          0      )
                  (     0          0          1      )
                  (    -1         -1         -1      )

 cart.    s(18) = (  0.0000000 -1.0000000  0.0000000 )
                  (  0.0000000  0.0000000  1.0000000 )
                  ( -1.0000000  0.0000000  0.0000000 )


      isym = 19     120 deg rotation - cart. axis [1,1,-1]       

 cryst.   s(19) = (     0          1          0      )
                  (    -1         -1         -1      )
                  (     0          0          1      )

 cart.    s(19) = (  0.0000000  1.0000000  0.0000000 )
                  (  0.0000000  0.0000000 -1.0000000 )
                  ( -1.0000000  0.0000000  0.0000000 )


      isym = 20     120 deg rotation - cart. axis [1,-1,1]       

 cryst.   s(20) = (    -1         -1         -1      )
                  (     0          1          0      )
                  (     1          0          0      )

 cart.    s(20) = (  0.0000000 -1.0000000  0.0000000 )
                  (  0.0000000  0.0000000 -1.0000000 )
                  (  1.0000000  0.0000000  0.0000000 )


      isym = 21     120 deg rotation - cart. axis [1,1,1]        

 cryst.   s(21) = (     0          1          0      )
                  (     0          0          1      )
                  (     1          0          0      )

 cart.    s(21) = (  0.0000000  0.0000000  1.0000000 )
                  (  1.0000000  0.0000000  0.0000000 )
                  (  0.0000000  1.0000000  0.0000000 )


      isym = 22     120 deg rotation - cart. axis [-1,1,-1]      

 cryst.   s(22) = (     0          0          1      )
                  (     0          1          0      )
                  (    -1         -1         -1      )

 cart.    s(22) = (  0.0000000  0.0000000  1.0000000 )
                  ( -1.0000000  0.0000000  0.0000000 )
                  (  0.0000000 -1.0000000  0.0000000 )


      isym = 23     120 deg rotation - cart. axis [1,-1,-1]      

 cryst.   s(23) = (     1          0          0      )
                  (    -1         -1         -1      )
                  (     0          1          0      )

 cart.    s(23) = (  0.0000000  0.0000000 -1.0000000 )
                  ( -1.0000000  0.0000000  0.0000000 )
                  (  0.0000000  1.0000000  0.0000000 )


      isym = 24     120 deg rotation - cart. axis [-1,-1,1]      

 cryst.   s(24) = (    -1         -1         -1      )
                  (     1          0          0      )
                  (     0          0          1      )

 cart.    s(24) = (  0.0000000  0.0000000 -1.0000000 )
                  (  1.0000000  0.0000000  0.0000000 )
                  (  0.0000000 -1.0000000  0.0000000 )


      isym = 25     inversion                                    

 cryst.   s(25) = (    -1          0          0      )
                  (     0         -1          0      )
                  (     0          0         -1      )

 cart.    s(25) = ( -1.0000000  0.0000000  0.0000000 )
                  (  0.0000000 -1.0000000  0.0000000 )
                  (  0.0000000  0.0000000 -1.0000000 )


      isym = 26     inv. 180 deg rotation - cart. axis [0,0,1]   

 cryst.   s(26) = (     0         -1          0      )
                  (    -1          0          0      )
                  (     1          1          1      )

 cart.    s(26) = (  1.0000000  0.0000000  0.0000000 )
                  (  0.0000000  1.0000000  0.0000000 )
                  (  0.0000000  0.0000000 -1.0000000 )


      isym = 27     inv. 180 deg rotation - cart. axis [0,1,0]   

 cryst.   s(27) = (     0          0         -1      )
                  (     1          1          1      )
                  (    -1          0          0      )

 cart.    s(27) = (  1.0000000  0.0000000  0.0000000 )
                  (  0.0000000 -1.0000000  0.0000000 )
                  (  0.0000000  0.0000000  1.0000000 )


      isym = 28     inv. 180 deg rotation - cart. axis [1,0,0]   

 cryst.   s(28) = (     1          1          1      )
                  (     0          0         -1      )
                  (     0         -1          0      )

 cart.    s(28) = ( -1.0000000  0.0000000  0.0000000 )
                  (  0.0000000  1.0000000  0.0000000 )
                  (  0.0000000  0.0000000  1.0000000 )


      isym = 29     inv. 180 deg rotation - cart. axis [1,1,0]   

 cryst.   s(29) = (     1          0          0      )
                  (     0          1          0      )
                  (    -1         -1         -1      )

 cart.    s(29) = (  0.0000000 -1.0000000  0.0000000 )
                  ( -1.0000000  0.0000000  0.0000000 )
                  (  0.0000000  0.0000000  1.0000000 )


      isym = 30     inv. 180 deg rotation - cart. axis [1,-1,0]  

 cryst.   s(30) = (     0          1          0      )
                  (     1          0          0      )
                  (     0          0          1      )

 cart.    s(30) = (  0.0000000  1.0000000  0.0000000 )
                  (  1.0000000  0.0000000  0.0000000 )
                  (  0.0000000  0.0000000  1.0000000 )


      isym = 31     inv.  90 deg rotation - cart. axis [0,0,-1]  

 cryst.   s(31) = (    -1         -1         -1      )
                  (     0          0          1      )
                  (     1          0          0      )

 cart.    s(31) = (  0.0000000 -1.0000000  0.0000000 )
                  (  1.0000000  0.0000000  0.0000000 )
                  (  0.0000000  0.0000000 -1.0000000 )


      isym = 32     inv.  90 deg rotation - cart. axis [0,0,1]   

 cryst.   s(32) = (     0          0          1      )
                  (    -1         -1         -1      )
                  (     0          1          0      )

 cart.    s(32) = (  0.0000000  1.0000000  0.0000000 )
                  ( -1.0000000  0.0000000  0.0000000 )
                  (  0.0000000  0.0000000 -1.0000000 )


      isym = 33     inv. 180 deg rotation - cart. axis [1,0,1]   

 cryst.   s(33) = (     1          0          0      )
                  (    -1         -1         -1      )
                  (     0          0          1      )

 cart.    s(33) = (  0.0000000  0.0000000 -1.0000000 )
                  (  0.0000000  1.0000000  0.0000000 )
                  ( -1.0000000  0.0000000  0.0000000 )


      isym = 34     inv. 180 deg rotation - cart. axis [-1,0,1]  

 cryst.   s(34) = (     0          0          1      )
                  (     0          1          0      )
                  (     1          0          0      )

 cart.    s(34) = (  0.0000000  0.0000000  1.0000000 )
                  (  0.0000000  1.0000000  0.0000000 )
                  (  1.0000000  0.0000000  0.0000000 )


      isym = 35     inv.  90 deg rotation - cart. axis [0,1,0]   

 cryst.   s(35) = (    -1         -1         -1      )
                  (     1          0          0      )
                  (     0          1          0      )

 cart.    s(35) = (  0.0000000  0.0000000 -1.0000000 )
                  (  0.0000000 -1.0000000  0.0000000 )
                  (  1.0000000  0.0000000  0.0000000 )


      isym = 36     inv.  90 deg rotation - cart. axis [0,-1,0]  

 cryst.   s(36) = (     0          1          0      )
                  (     0          0          1      )
                  (    -1         -1         -1      )

 cart.    s(36) = (  0.0000000  0.0000000  1.0000000 )
                  (  0.0000000 -1.0000000  0.0000000 )
                  ( -1.0000000  0.0000000  0.0000000 )


      isym = 37     inv. 180 deg rotation - cart. axis [0,1,1]   

 cryst.   s(37) = (    -1         -1         -1      )
                  (     0          1          0      )
                  (     0          0          1      )

 cart.    s(37) = (  1.0000000  0.0000000  0.0000000 )
                  (  0.0000000  0.0000000 -1.0000000 )
                  (  0.0000000 -1.0000000  0.0000000 )


      isym = 38     inv. 180 deg rotation - cart. axis [0,1,-1]  

 cryst.   s(38) = (     1          0          0      )
                  (     0          0          1      )
                  (     0          1          0      )

 cart.    s(38) = (  1.0000000  0.0000000  0.0000000 )
                  (  0.0000000  0.0000000  1.0000000 )
                  (  0.0000000  1.0000000  0.0000000 )


      isym = 39     inv.  90 deg rotation - cart. axis [-1,0,0]  

 cryst.   s(39) = (     0          1          0      )
                  (    -1         -1         -1      )
                  (     1          0          0      )

 cart.    s(39) = ( -1.0000000  0.0000000  0.0000000 )
                  (  0.0000000  0.0000000 -1.0000000 )
                  (  0.0000000  1.0000000  0.0000000 )


      isym = 40     inv.  90 deg rotation - cart. axis [1,0,0]   

 cryst.   s(40) = (     0          0          1      )
                  (     1          0          0      )
                  (    -1         -1         -1      )

 cart.    s(40) = ( -1.0000000  0.0000000  0.0000000 )
                  (  0.0000000  0.0000000  1.0000000 )
                  (  0.0000000 -1.0000000  0.0000000 )


      isym = 41     inv. 120 deg rotation - cart. axis [-1,-1,-1]

 cryst.   s(41) = (     0          0         -1      )
                  (    -1          0          0      )
                  (     0         -1          0      )

 cart.    s(41) = (  0.0000000 -1.0000000  0.0000000 )
                  (  0.0000000  0.0000000 -1.0000000 )
                  ( -1.0000000  0.0000000  0.0000000 )


      isym = 42     inv. 120 deg rotation - cart. axis [-1,1,1]  

 cryst.   s(42) = (    -1          0          0      )
                  (     0          0         -1      )
                  (     1          1          1      )

 cart.    s(42) = (  0.0000000  1.0000000  0.0000000 )
                  (  0.0000000  0.0000000 -1.0000000 )
                  (  1.0000000  0.0000000  0.0000000 )


      isym = 43     inv. 120 deg rotation - cart. axis [1,1,-1]  

 cryst.   s(43) = (     0         -1          0      )
                  (     1          1          1      )
                  (     0          0         -1      )

 cart.    s(43) = (  0.0000000 -1.0000000  0.0000000 )
                  (  0.0000000  0.0000000  1.0000000 )
                  (  1.0000000  0.0000000  0.0000000 )


      isym = 44     inv. 120 deg rotation - cart. axis [1,-1,1]  

 cryst.   s(44) = (     1          1          1      )
                  (     0         -1          0      )
                  (    -1          0          0      )

 cart.    s(44) = (  0.0000000  1.0000000  0.0000000 )
                  (  0.0000000  0.0000000  1.0000000 )
                  ( -1.0000000  0.0000000  0.0000000 )


      isym = 45     inv. 120 deg rotation - cart. axis [1,1,1]   

 cryst.   s(45) = (     0         -1          0      )
                  (     0          0         -1      )
                  (    -1          0          0      )

 cart.    s(45) = (  0.0000000  0.0000000 -1.0000000 )
                  ( -1.0000000  0.0000000  0.0000000 )
                  (  0.0000000 -1.0000000  0.0000000 )


      isym = 46     inv. 120 deg rotation - cart. axis [-1,1,-1] 

 cryst.   s(46) = (     0          0         -1      )
                  (     0         -1          0      )
                  (     1          1          1      )

 cart.    s(46) = (  0.0000000  0.0000000 -1.0000000 )
                  (  1.0000000  0.0000000  0.0000000 )
                  (  0.0000000  1.0000000  0.0000000 )


      isym = 47     inv. 120 deg rotation - cart. axis [1,-1,-1] 

 cryst.   s(47) = (    -1          0          0      )
                  (     1          1          1      )
                  (     0         -1          0      )

 cart.    s(47) = (  0.0000000  0.0000000  1.0000000 )
                  (  1.0000000  0.0000000  0.0000000 )
                  (  0.0000000 -1.0000000  0.0000000 )


      isym = 48     inv. 120 deg rotation - cart. axis [-1,-1,1] 

 cryst.   s(48) = (     1          1          1      )
                  (    -1          0          0      )
                  (     0          0         -1      )

 cart.    s(48) = (  0.0000000  0.0000000  1.0000000 )
                  ( -1.0000000  0.0000000  0.0000000 )
                  (  0.0000000  1.0000000  0.0000000 )


   Cartesian axes

     site n.     atom                  positions (alat units)
         1           Hg  tau(   1) = (   0.0000000   0.0000000   0.0000000  )

   Crystallographic axes

     site n.     atom                  positions (cryst. coord.)
         1           Hg  tau(   1) = (  0.0000000  0.0000000  0.0000000  )

     number of k points=    50  gaussian smearing, width (Ry)=  0.0010
                       cart. coord. in units 2pi/alat
        k(    1) = (   0.0000000   0.0000000   0.0000000), wk =   0.0400000
        k(    2) = (   0.0000000   0.0618590   0.0000000), wk =   0.0400000
        k(    3) = (   0.0000000   0.1237179   0.0000000), wk =   0.0400000
        k(    4) = (   0.0000000   0.1855769   0.0000000), wk =   0.0400000
        k(    5) = (   0.0000000   0.2474358   0.0000000), wk =   0.0400000
        k(    6) = (   0.0000000   0.3092948   0.0000000), wk =   0.0400000
        k(    7) = (   0.0000000   0.3711537   0.0000000), wk =   0.0400000
        k(    8) = (   0.0000000   0.4330127   0.0000000), wk =   0.0400000
        k(    9) = (   0.0000000   0.4948717   0.0000000), wk =   0.0400000
        k(   10) = (   0.0000000   0.5567306   0.0000000), wk =   0.0400000
        k(   11) = (   0.0000000   0.6185896   0.0000000), wk =   0.0400000
        k(   12) = (   0.0000000   0.6804485   0.0000000), wk =   0.0400000
        k(   13) = (   0.0000000   0.7423075   0.0000000), wk =   0.0400000
        k(   14) = (   0.0000000   0.8041664   0.0000000), wk =   0.0400000
        k(   15) = (   0.0000000   0.8660254   0.0000000), wk =   0.0400000
        k(   16) = (   0.0433013   0.8227241   0.0000000), wk =   0.0400000
        k(   17) = (   0.0866025   0.7794229   0.0000000), wk =   0.0400000
        k(   18) = (   0.1299038   0.7361216   0.0000000), wk =   0.0400000
        k(   19) = (   0.1732051   0.6928203   0.0000000), wk =   0.0400000
        k(   20) = (   0.2165064   0.6495191   0.0000000), wk =   0.0400000
        k(   21) = (   0.2598076   0.6062178   0.0000000), wk =   0.0400000
        k(   22) = (   0.3031089   0.5629165   0.0000000), wk =   0.0400000
        k(   23) = (   0.3464102   0.5196152   0.0000000), wk =   0.0400000
        k(   24) = (   0.3897114   0.4763140   0.0000000), wk =   0.0400000
        k(   25) = (   0.4330127   0.4330127   0.0000000), wk =   0.0400000
        k(   26) = (   0.3936479   0.3936479   0.0000000), wk =   0.0400000
        k(   27) = (   0.3542831   0.3542831   0.0000000), wk =   0.0400000
        k(   28) = (   0.3149183   0.3149183   0.0000000), wk =   0.0400000
        k(   29) = (   0.2755535   0.2755535   0.0000000), wk =   0.0400000
        k(   30) = (   0.2361887   0.2361887   0.0000000), wk =   0.0400000
        k(   31) = (   0.1968240   0.1968240   0.0000000), wk =   0.0400000
        k(   32) = (   0.1574592   0.1574592   0.0000000), wk =   0.0400000
        k(   33) = (   0.1180944   0.1180944   0.0000000), wk =   0.0400000
        k(   34) = (   0.0787296   0.0787296   0.0000000), wk =   0.0400000
        k(   35) = (   0.0393648   0.0393648   0.0000000), wk =   0.0400000
        k(   36) = (   0.0000000   0.0000000   0.0000000), wk =   0.0400000
        k(   37) = (   0.0309295   0.0309295   0.0309295), wk =   0.0400000
        k(   38) = (   0.0618590   0.0618590   0.0618590), wk =   0.0400000
        k(   39) = (   0.0927884   0.0927884   0.0927884), wk =   0.0400000
        k(   40) = (   0.1237179   0.1237179   0.1237179), wk =   0.0400000
        k(   41) = (   0.1546474   0.1546474   0.1546474), wk =   0.0400000
        k(   42) = (   0.1855769   0.1855769   0.1855769), wk =   0.0400000
        k(   43) = (   0.2165064   0.2165064   0.2165064), wk =   0.0400000
        k(   44) = (   0.2474358   0.2474358   0.2474358), wk =   0.0400000
        k(   45) = (   0.2783653   0.2783653   0.2783653), wk =   0.0400000
        k(   46) = (   0.3092948   0.3092948   0.3092948), wk =   0.0400000
        k(   47) = (   0.3402243   0.3402243   0.3402243), wk =   0.0400000
        k(   48) = (   0.3711537   0.3711537   0.3711537), wk =   0.0400000
        k(   49) = (   0.4020832   0.4020832   0.4020832), wk =   0.0400000
        k(   50) = (   0.4330127   0.4330127   0.4330127), wk =   0.0400000

                       cryst. coord.
        k(    1) = (   0.0000000   0.0000000   0.0000000), wk =   0.0400000
        k(    2) = (   0.0357143  -0.0357143   0.0357143), wk =   0.0400000
        k(    3) = (   0.0714286  -0.0714286   0.0714286), wk =   0.0400000
        k(    4) = (   0.1071429  -0.1071429   0.1071429), wk =   0.0400000
        k(    5) = (   0.1428571  -0.1428571   0.1428571), wk =   0.0400000
        k(    6) = (   0.1785714  -0.1785714   0.1785714), wk =   0.0400000
        k(    7) = (   0.2142857  -0.2142857   0.2142857), wk =   0.0400000
        k(    8) = (   0.2500000  -0.2500000   0.2500000), wk =   0.0400000
        k(    9) = (   0.2857143  -0.2857143   0.2857143), wk =   0.0400000
        k(   10) = (   0.3214286  -0.3214286   0.3214286), wk =   0.0400000
        k(   11) = (   0.3571429  -0.3571429   0.3571429), wk =   0.0400000
        k(   12) = (   0.3928571  -0.3928571   0.3928571), wk =   0.0400000
        k(   13) = (   0.4285714  -0.4285714   0.4285714), wk =   0.0400000
        k(   14) = (   0.4642857  -0.4642857   0.4642857), wk =   0.0400000
        k(   15) = (   0.5000000  -0.5000000   0.5000000), wk =   0.0400000
        k(   16) = (   0.4500000  -0.4500000   0.5000000), wk =   0.0400000
        k(   17) = (   0.4000000  -0.4000000   0.5000000), wk =   0.0400000
        k(   18) = (   0.3500000  -0.3500000   0.5000000), wk =   0.0400000
        k(   19) = (   0.3000000  -0.3000000   0.5000000), wk =   0.0400000
        k(   20) = (   0.2500000  -0.2500000   0.5000000), wk =   0.0400000
        k(   21) = (   0.2000000  -0.2000000   0.5000000), wk =   0.0400000
        k(   22) = (   0.1500000  -0.1500000   0.5000000), wk =   0.0400000
        k(   23) = (   0.1000000  -0.1000000   0.5000000), wk =   0.0400000
        k(   24) = (   0.0500000  -0.0500000   0.5000000), wk =   0.0400000
        k(   25) = (   0.0000000   0.0000000   0.5000000), wk =   0.0400000
        k(   26) = (   0.0000000   0.0000000   0.4545455), wk =   0.0400000
        k(   27) = (   0.0000000   0.0000000   0.4090909), wk =   0.0400000
        k(   28) = (   0.0000000   0.0000000   0.3636364), wk =   0.0400000
        k(   29) = (   0.0000000   0.0000000   0.3181818), wk =   0.0400000
        k(   30) = (   0.0000000   0.0000000   0.2727273), wk =   0.0400000
        k(   31) = (   0.0000000   0.0000000   0.2272727), wk =   0.0400000
        k(   32) = (   0.0000000   0.0000000   0.1818182), wk =   0.0400000
        k(   33) = (   0.0000000   0.0000000   0.1363636), wk =   0.0400000
        k(   34) = (   0.0000000   0.0000000   0.0909091), wk =   0.0400000
        k(   35) = (   0.0000000   0.0000000   0.0454545), wk =   0.0400000
        k(   36) = (   0.0000000   0.0000000   0.0000000), wk =   0.0400000
        k(   37) = (   0.0178571   0.0178571   0.0178571), wk =   0.0400000
        k(   38) = (   0.0357143   0.0357143   0.0357143), wk =   0.0400000
        k(   39) = (   0.0535714   0.0535714   0.0535714), wk =   0.0400000
        k(   40) = (   0.0714286   0.0714286   0.0714286), wk =   0.0400000
        k(   41) = (   0.0892857   0.0892857   0.0892857), wk =   0.0400000
        k(   42) = (   0.1071429   0.1071429   0.1071429), wk =   0.0400000
        k(   43) = (   0.1250000   0.1250000   0.1250000), wk =   0.0400000
        k(   44) = (   0.1428571   0.1428571   0.1428571), wk =   0.0400000
        k(   45) = (   0.1607143   0.1607143   0.1607143), wk =   0.0400000
        k(   46) = (   0.1785714   0.1785714   0.1785714), wk =   0.0400000
        k(   47) = (   0.1964286   0.1964286   0.1964286), wk =   0.0400000
        k(   48) = (   0.2142857   0.2142857   0.2142857), wk =   0.0400000
        k(   49) = (   0.2321429   0.2321429   0.2321429), wk =   0.0400000
        k(   50) = (   0.2500000   0.2500000   0.2500000), wk =   0.0400000

     Dense  grid:     9597 G-vectors     FFT dimensions: (  30,  30,  30)

     Smooth grid:     6819 G-vectors     FFT dimensions: (  25,  25,  25)

     Estimated max dynamical RAM per process >      10.93Mb

     The potential is recalculated from file :
     ./pwscf.save/charge-density.dat

     Starting wfc are    9 randomized atomic wfcs +    1 random wfc

     Band Structure Calculation
     Davidson diagonalization with overlap

     Computing kpt #:     1
     total cpu time spent up to now is        0.8 secs

     Computing kpt #:     2
     total cpu time spent up to now is        1.0 secs

     Computing kpt #:     3
     total cpu time spent up to now is        1.1 secs

     Computing kpt #:     4
     total cpu time spent up to now is        1.2 secs

     Computing kpt #:     5
     total cpu time spent up to now is        1.3 secs

     Computing kpt #:     6
     total cpu time spent up to now is        1.4 secs

     Computing kpt #:     7
     total cpu time spent up to now is        1.5 secs

     Computing kpt #:     8
     total cpu time spent up to now is        1.7 secs

     Computing kpt #:     9
     total cpu time spent up to now is        1.8 secs

     Computing kpt #:    10
     total cpu time spent up to now is        1.9 secs

     Computing kpt #:    11
     total cpu time spent up to now is        2.0 secs

     Computing kpt #:    12
     total cpu time spent up to now is        2.1 secs

     Computing kpt #:    13
     total cpu time spent up to now is        2.2 secs

     Computing kpt #:    14
     total cpu time spent up to now is        2.3 secs

     Computing kpt #:    15
     total cpu time spent up to now is        2.4 secs

     Computing kpt #:    16
     total cpu time spent up to now is        2.6 secs

     Computing kpt #:    17
     total cpu time spent up to now is        2.7 secs

     Computing kpt #:    18
     total cpu time spent up to now is        2.8 secs

     Computing kpt #:    19
     total cpu time spent up to now is        2.9 secs

     Computing kpt #:    20
     total cpu time spent up to now is        3.1 secs

     Computing kpt #:    21
     total cpu time spent up to now is        3.2 secs

     Computing kpt #:    22
     total cpu time spent up to now is        3.4 secs

     Computing kpt #:    23
     total cpu time spent up to now is        3.5 secs

     Computing kpt #:    24
     total cpu time spent up to now is        3.6 secs

     Computing kpt #:    25
     total cpu time spent up to now is        3.7 secs

     Computing kpt #:    26
     total cpu time spent up to now is        3.9 secs

     Computing kpt #:    27
     total cpu time spent up to now is        4.0 secs

     Computing kpt #:    28
     total cpu time spent up to now is        4.1 secs

     Computing kpt #:    29
     total cpu time spent up to now is        4.2 secs

     Computing kpt #:    30
     total cpu time spent up to now is        4.4 secs

     Computing kpt #:    31
     total cpu time spent up to now is        4.5 secs

     Computing kpt #:    32
     total cpu time spent up to now is        4.7 secs

     Computing kpt #:    33
     total cpu time spent up to now is        4.8 secs

     Computing kpt #:    34
     total cpu time spent up to now is        5.0 secs

     Computing kpt #:    35
     total cpu time spent up to now is        5.2 secs

     Computing kpt #:    36
     total cpu time spent up to now is        5.3 secs

     Computing kpt #:    37
     total cpu time spent up to now is        5.5 secs

     Computing kpt #:    38
     total cpu time spent up to now is        5.7 secs

     Computing kpt #:    39
     total cpu time spent up to now is        5.9 secs

     Computing kpt #:    40
     total cpu time spent up to now is        6.0 secs

     Computing kpt #:    41
     total cpu time spent up to now is        6.2 secs

     Computing kpt #:    42
     total cpu time spent up to now is        6.4 secs

     Computing kpt #:    43
     total cpu time spent up to now is        6.5 secs

     Computing kpt #:    44
     total cpu time spent up to now is        6.7 secs

     Computing kpt #:    45
     total cpu time spent up to now is        6.9 secs

     Computing kpt #:    46
     total cpu time spent up to now is        7.1 secs

     Computing kpt #:    47
     total cpu time spent up to now is        7.2 secs

     Computing kpt #:    48
     total cpu time spent up to now is        7.4 secs

     Computing kpt #:    49
     total cpu time spent up to now is        7.7 secs

     Computing kpt #:    50
     total cpu time spent up to now is        7.8 secs

     ethr =  8.33E-10,  avg # of iterations = 18.5

     total cpu time spent up to now is        7.8 secs

     End of band structure calculation

          k = 0.0000 0.0000 0.0000 (   887 PWs)   bands (ev):

     0.6656   1.5811   1.5811   1.5811   2.1550   2.1550  21.4767  21.4767
    21.4767  22.1042

          k = 0.0000 0.0619 0.0000 (   879 PWs)   bands (ev):

     0.7229   1.5849   1.5849   1.5917   2.1428   2.1594  20.9194  21.2256
    21.2256  21.8308

          k = 0.0000 0.1237 0.0000 (   867 PWs)   bands (ev):

     0.8916   1.5969   1.5969   1.6234   2.1067   2.1741  19.7589  20.5103
    20.5103  21.2269

          k = 0.0000 0.1856 0.0000 (   863 PWs)   bands (ev):

     1.1583   1.6190   1.6190   1.6745   2.0486   2.2071  18.4941  19.5576
    19.5576  20.5484

          k = 0.0000 0.2474 0.0000 (   863 PWs)   bands (ev):

     1.4776   1.6536   1.6536   1.7428   1.9711   2.2958  17.2947  18.5238
    18.5238  19.9000

          k = 0.0000 0.3093 0.0000 (   863 PWs)   bands (ev):

     1.7033   1.7033   1.7205   1.8252   1.8781   2.5591  16.2203  17.4811
    17.4811  19.3174

          k = 0.0000 0.3712 0.0000 (   855 PWs)   bands (ev):

     1.7700   1.7700   1.7741   1.7923   1.9178   3.0811  15.2944  16.4671
    16.4671  18.8115

          k = 0.0000 0.4330 0.0000 (   843 PWs)   bands (ev):

     1.6644   1.7616   1.8542   1.8542   2.0162   3.7839  14.5229  15.5064
    15.5064  18.3833

          k = 0.0000 0.4949 0.0000 (   843 PWs)   bands (ev):

     1.5547   1.6808   1.9543   1.9543   2.1154   4.6079  13.8987  14.6181
    14.6181  18.0295

          k = 0.0000 0.5567 0.0000 (   856 PWs)   bands (ev):

     1.4503   1.5731   2.0662   2.0662   2.2106   5.5239  13.4029  13.8195
    13.8195  17.7445

          k = 0.0000 0.6186 0.0000 (   848 PWs)   bands (ev):

     1.3568   1.4555   2.1827   2.1827   2.2966   6.5072  13.0055  13.1283
    13.1283  17.5223

          k = 0.0000 0.6804 0.0000 (   848 PWs)   bands (ev):

     1.2787   1.3436   2.2933   2.2933   2.3690   7.5247  12.5627  12.5627
    12.6650  17.3567

          k = 0.0000 0.7423 0.0000 (   852 PWs)   bands (ev):

     1.2200   1.2520   2.3858   2.3858   2.4238   8.5190  12.1411  12.1411
    12.3326  17.2425

          k = 0.0000 0.8042 0.0000 (   856 PWs)   bands (ev):

     1.1836   1.1921   2.4477   2.4477   2.4579   9.3647  11.8800  11.8800
    11.9876  17.1757

          k = 0.0000 0.8660 0.0000 (   856 PWs)   bands (ev):

     1.1712   1.1712   2.4695   2.4695   2.4695   9.7502  11.7915  11.7915
    11.7915  17.1537

          k = 0.0433 0.8227 0.0000 (   856 PWs)   bands (ev):

     1.1853   1.1897   2.4345   2.4480   2.4719   9.4008  11.6221  11.8780
    12.2109  17.2447

          k = 0.0866 0.7794 0.0000 (   852 PWs)   bands (ev):

     1.2252   1.2444   2.3354   2.3851   2.4789   8.7563  11.1821  12.1306
    13.0432  17.5387

          k = 0.1299 0.7361 0.0000 (   852 PWs)   bands (ev):

     1.2834   1.3332   2.1877   2.2877   2.4898   8.1279  10.5968  12.5304
    13.9154  18.0931

          k = 0.1732 0.6928 0.0000 (   840 PWs)   bands (ev):

     1.3448   1.4522   2.0119   2.1720   2.5035   7.5935   9.9616  13.0512
    14.6815  18.9650

          k = 0.2165 0.6495 0.0000 (   846 PWs)   bands (ev):

     1.3829   1.5950   1.8286   2.0686   2.5188   7.1693   9.3356  13.6625
    15.3101  20.1473

          k = 0.2598 0.6062 0.0000 (   854 PWs)   bands (ev):

     1.3656   1.6558   1.7518   2.0173   2.5341   6.8506   8.7584  14.3296
    15.8445  21.5546

          k = 0.3031 0.5629 0.0000 (   846 PWs)   bands (ev):

     1.2930   1.5077   1.9082   2.0269   2.5479   6.6242   8.2618  15.0089
    16.3344  22.5706

          k = 0.3464 0.5196 0.0000 (   840 PWs)   bands (ev):

     1.2054   1.3949   2.0451   2.0645   2.5590   6.4752   7.8757  15.6360
    16.7935  21.7056

          k = 0.3897 0.4763 0.0000 (   836 PWs)   bands (ev):

     1.1399   1.3245   2.0982   2.1403   2.5661   6.3911   7.6286  16.1082
    17.1709  21.0052

          k = 0.4330 0.4330 0.0000 (   846 PWs)   bands (ev):

     1.1161   1.3005   2.1111   2.1746   2.5685   6.3640   7.5433  16.2903
    17.3304  20.7343

          k = 0.3936 0.3936 0.0000 (   850 PWs)   bands (ev):

     1.1254   1.3060   2.1082   2.1740   2.5455   5.7613   8.2347  16.3678
    17.3827  20.7415

          k = 0.3543 0.3543 0.0000 (   848 PWs)   bands (ev):

     1.1520   1.3221   2.1002   2.1722   2.4792   4.8816   9.3800  16.5967
    17.5386  20.7644

          k = 0.3149 0.3149 0.0000 (   848 PWs)   bands (ev):

     1.1918   1.3476   2.0891   2.1696   2.3773   4.0523  10.6516  16.9661
    17.7953  20.8075

          k = 0.2756 0.2756 0.0000 (   852 PWs)   bands (ev):

     1.2376   1.3806   2.0781   2.1665   2.2506   3.3106  12.0116  17.4594
    18.1482  20.8769

          k = 0.2362 0.2362 0.0000 (   858 PWs)   bands (ev):

     1.2775   1.4185   2.0706   2.1115   2.1634   2.6714  13.4467  18.0550
    18.5902  20.9792

          k = 0.1968 0.1968 0.0000 (   863 PWs)   bands (ev):

     1.2895   1.4584   1.9720   2.0597   2.1606   2.1642  14.9457  18.7270
    19.1106  21.1202

          k = 0.1575 0.1575 0.0000 (   863 PWs)   bands (ev):

     1.2241   1.4971   1.7906   1.8430   2.0913   2.1583  16.4941  19.4431
    19.6928  21.3013

          k = 0.1181 0.1181 0.0000 (   871 PWs)   bands (ev):

     1.0439   1.5313   1.6408   1.7335   2.1097   2.1567  18.0660  20.1595
    20.3079  21.5166

          k = 0.0787 0.0787 0.0000 (   867 PWs)   bands (ev):

     0.8459   1.5581   1.5975   1.6504   2.1316   2.1557  19.6010  20.8102
    20.8967  21.7467

          k = 0.0394 0.0394 0.0000 (   885 PWs)   bands (ev):

     0.7119   1.5752   1.5843   1.5986   2.1486   2.1551  20.9141  21.2927
    21.3331  21.9615

          k = 0.0000 0.0000 0.0000 (   887 PWs)   bands (ev):

     0.6656   1.5811   1.5811   1.5811   2.1550   2.1550  21.4767  21.4767
    21.4767  22.1042

          k = 0.0309 0.0309 0.0309 (   887 PWs)   bands (ev):

     0.7084   1.5783   1.5783   1.6004   2.1521   2.1521  20.9773  21.2912
    21.2912  22.0374

          k = 0.0619 0.0619 0.0619 (   860 PWs)   bands (ev):

     0.8327   1.5699   1.5699   1.6614   2.1446   2.1446  19.8482  20.6313
    20.6313  22.1569

          k = 0.0928 0.0928 0.0928 (   860 PWs)   bands (ev):

     1.0226   1.5555   1.5555   1.7762   2.1351   2.1351  18.5104  19.7375
    19.7375  22.4397

          k = 0.1237 0.1237 0.1237 (   854 PWs)   bands (ev):

     1.2428   1.5355   1.5355   1.9737   2.1270   2.1270  17.1368  18.7859
    18.7859  22.7005

          k = 0.1546 0.1546 0.1546 (   866 PWs)   bands (ev):

     1.4443   1.5113   1.5113   2.1230   2.1230   2.2941  15.7976  17.8371
    17.8371  23.0357

          k = 0.1856 0.1856 0.1856 (   854 PWs)   bands (ev):

     1.4862   1.4862   1.6035   2.1241   2.1241   2.7485  14.5298  16.9153
    16.9153  23.4450

          k = 0.2165 0.2165 0.2165 (   851 PWs)   bands (ev):

     1.4646   1.4646   1.7270   2.1298   2.1298   3.3144  13.3597  16.0322
    16.0322  23.9284

          k = 0.2474 0.2474 0.2474 (   850 PWs)   bands (ev):

     1.4507   1.4507   1.8207   2.1389   2.1389   3.9648  12.3118  15.1941
    15.1941  24.4856

          k = 0.2784 0.2784 0.2784 (   856 PWs)   bands (ev):

     1.4484   1.4484   1.8833   2.1497   2.1497   4.6720  11.4146  14.4051
    14.4051  25.1162

          k = 0.3093 0.3093 0.3093 (   856 PWs)   bands (ev):

     1.4601   1.4601   1.9099   2.1604   2.1604   5.3967  10.7095  13.6688
    13.6688  25.8198

          k = 0.3402 0.3402 0.3402 (   850 PWs)   bands (ev):

     1.4866   1.4866   1.8962   2.1699   2.1699   6.0703  10.2657  12.9883
    12.9883  26.5960

          k = 0.3712 0.3712 0.3712 (   847 PWs)   bands (ev):

     1.5270   1.5270   1.8414   2.1771   2.1771   6.5805  10.1921  12.3677
    12.3677  27.4440

          k = 0.4021 0.4021 0.4021 (   847 PWs)   bands (ev):

     1.5787   1.5787   1.7510   2.1815   2.1815   6.8377  10.5685  11.8116
    11.8116  28.3629

          k = 0.4330 0.4330 0.4330 (   868 PWs)   bands (ev):

     1.6372   1.6372   1.6372   2.1828   2.1828   6.8949  11.3255  11.3255
    11.3255  28.9045

     Writing output data file pwscf.save

     init_run     :      0.77s CPU      0.52s WALL (       1 calls)
     electrons    :     14.19s CPU      7.15s WALL (       1 calls)

     Called by init_run:
     wfcinit      :      0.00s CPU      0.00s WALL (       1 calls)
     wfcinit:atom :      0.06s CPU      0.03s WALL (      50 calls)
     wfcinit:wfcr :      0.95s CPU      0.42s WALL (      50 calls)
     potinit      :      0.03s CPU      0.03s WALL (       1 calls)

     Called by electrons:
     c_bands      :     14.19s CPU      7.15s WALL (       1 calls)
     v_of_rho     :      0.03s CPU      0.02s WALL (       1 calls)
     v_h          :      0.00s CPU      0.00s WALL (       1 calls)
     v_xc         :      0.03s CPU      0.02s WALL (       1 calls)
     newd         :      0.02s CPU      0.06s WALL (       1 calls)

     Called by c_bands:
     init_us_2    :      0.06s CPU      0.04s WALL (      50 calls)
     cegterg      :     12.83s CPU      6.53s WALL (      68 calls)

     Called by sum_band:

     Called by *egterg:
     h_psi        :      9.14s CPU      4.34s WALL (    1045 calls)
     s_psi        :      0.23s CPU      0.14s WALL (    1045 calls)
     g_psi        :      0.08s CPU      0.06s WALL (     927 calls)
     cdiaghg      :      2.52s CPU      1.33s WALL (     977 calls)
     cegterg:over :      0.83s CPU      0.39s WALL (     927 calls)
     cegterg:upda :      0.48s CPU      0.33s WALL (     927 calls)
     cegterg:last :      0.23s CPU      0.18s WALL (     188 calls)

     Called by h_psi:
     h_psi:pot    :      8.97s CPU      4.29s WALL (    1045 calls)
     h_psi:calbec :      0.38s CPU      0.17s WALL (    1045 calls)
     vloc_psi     :      8.27s CPU      3.92s WALL (    1045 calls)
     add_vuspsi   :      0.33s CPU      0.16s WALL (    1045 calls)

     General routines
     calbec       :      0.38s CPU      0.16s WALL (    1045 calls)
     fft          :      0.00s CPU      0.01s WALL (      13 calls)
     ffts         :      0.00s CPU      0.00s WALL (       1 calls)
     fftw         :      7.11s CPU      3.28s WALL (   11706 calls)
     interpolate  :      0.00s CPU      0.00s WALL (       1 calls)
     davcio       :      0.00s CPU      0.00s WALL (      50 calls)

     Parallel routines
     fft_scatter  :      0.66s CPU      0.35s WALL (   11720 calls)

     PWSCF        :    15.28s CPU         8.12s WALL


   This run was terminated on:  23:54: 1  25Feb2021            

=------------------------------------------------------------------------------=
   JOB DONE.
=------------------------------------------------------------------------------=
