element =  Nb
struct =  bcc
nbands =  -4
path =  GHNGP
kpts =  (8,8,8)
lattice constant a =  3.3
lattice constant b =  3.3
lattice constant c =  3.3
alpha angle =  90.0

  ___ ___ ___ _ _ _  
 |   |   |_  | | | | 
 | | | | | . | | | | 
 |__ |  _|___|_____|  1.3.1b1
 |___|_|             

User:   inukai@DESKTOP-12SE80T
Date:   Thu Feb 11 22:22:48 2021
Arch:   x86_64
Pid:    15287
Python: 3.6.9
gpaw:   /usr/lib/python3/dist-packages/gpaw
_gpaw:  /usr/lib/python3/dist-packages/_gpaw.cpython-36m-x86_64-linux-gnu.so
ase:    /home/inukai/hotcent/ase-3.19.3/ase (version 3.19.3)
numpy:  /home/inukai/.local/lib/python3.6/site-packages/numpy (version 1.19.5)
scipy:  /home/inukai/.local/lib/python3.6/site-packages/scipy (version 1.5.4)
units:  Angstrom and eV
cores:  1

Input parameters:
  kpts: [8 8 8]
  maxiter: 1500
  mixer: {backend: pulay,
          beta: 0.01,
          method: separate,
          nmaxold: 11,
          weight: 100.0}
  mode: {ecut: 400.0,
         name: pw}
  occupations: {name: fermi-dirac,
                width: 0.02}
  spinpol: True
  xc: PBE

System changes: positions, numbers, cell, pbc, initial_charges, initial_magmoms 

Initialize ...

Nb-setup:
  name: Niobium
  id: 2c58cec662e8907f1eddae40307d1f1e
  Z: 41
  valence: 13
  core: 28
  charge: 0.0
  file: /usr/share/gpaw-setups/Nb.PBE.gz
  cutoffs: 1.27(comp), 2.35(filt), 1.51(core), lmax=2
  valence states:
                energy  radius
    4s(2.00)   -58.361   1.323
    5s(1.00)    -3.980   1.323
    4p(6.00)   -34.526   1.323
    5p(0.00)    -1.111   1.323
    4d(4.00)    -3.041   1.244
    *d          24.171   1.244

  Using partial waves for Nb as LCAO basis

Reference energy: -103906.147789

Spin-polarized calculation.
Magnetic moment:  0.000000

Occupation numbers:
  Fermi-Dirac: width=0.0200 eV

Convergence criteria:
  Maximum total energy change: 0.0005 eV / electron
  Maximum integral of absolute density change: 0.0001 electrons
  Maximum integral of absolute eigenstate change: 4e-08 eV^2
  Maximum number of iterations: 1500

Symmetries present (total): 48

  ( 1  1  1)  ( 1  1  1)  ( 1  1  1)  ( 1  1  1)  ( 1  1  1)  ( 1  1  1)
  ( 0  0 -1)  ( 0  0 -1)  ( 0 -1  0)  ( 0 -1  0)  (-1  0  0)  (-1  0  0)
  ( 0 -1  0)  (-1  0  0)  ( 0  0 -1)  (-1  0  0)  ( 0  0 -1)  ( 0 -1  0)

  ( 1  0  0)  ( 1  0  0)  ( 1  0  0)  ( 1  0  0)  ( 1  0  0)  ( 1  0  0)
  ( 0  1  0)  ( 0  1  0)  ( 0  0  1)  ( 0  0  1)  (-1 -1 -1)  (-1 -1 -1)
  ( 0  0  1)  (-1 -1 -1)  ( 0  1  0)  (-1 -1 -1)  ( 0  1  0)  ( 0  0  1)

  ( 0  1  0)  ( 0  1  0)  ( 0  1  0)  ( 0  1  0)  ( 0  1  0)  ( 0  1  0)
  ( 1  0  0)  ( 1  0  0)  ( 0  0  1)  ( 0  0  1)  (-1 -1 -1)  (-1 -1 -1)
  ( 0  0  1)  (-1 -1 -1)  ( 1  0  0)  (-1 -1 -1)  ( 1  0  0)  ( 0  0  1)

  ( 0  0  1)  ( 0  0  1)  ( 0  0  1)  ( 0  0  1)  ( 0  0  1)  ( 0  0  1)
  ( 1  0  0)  ( 1  0  0)  ( 0  1  0)  ( 0  1  0)  (-1 -1 -1)  (-1 -1 -1)
  ( 0  1  0)  (-1 -1 -1)  ( 1  0  0)  (-1 -1 -1)  ( 1  0  0)  ( 0  1  0)

  ( 0  0 -1)  ( 0  0 -1)  ( 0  0 -1)  ( 0  0 -1)  ( 0  0 -1)  ( 0  0 -1)
  ( 1  1  1)  ( 1  1  1)  ( 0 -1  0)  ( 0 -1  0)  (-1  0  0)  (-1  0  0)
  ( 0 -1  0)  (-1  0  0)  ( 1  1  1)  (-1  0  0)  ( 1  1  1)  ( 0 -1  0)

  ( 0 -1  0)  ( 0 -1  0)  ( 0 -1  0)  ( 0 -1  0)  ( 0 -1  0)  ( 0 -1  0)
  ( 1  1  1)  ( 1  1  1)  ( 0  0 -1)  ( 0  0 -1)  (-1  0  0)  (-1  0  0)
  ( 0  0 -1)  (-1  0  0)  ( 1  1  1)  (-1  0  0)  ( 1  1  1)  ( 0  0 -1)

  (-1  0  0)  (-1  0  0)  (-1  0  0)  (-1  0  0)  (-1  0  0)  (-1  0  0)
  ( 1  1  1)  ( 1  1  1)  ( 0  0 -1)  ( 0  0 -1)  ( 0 -1  0)  ( 0 -1  0)
  ( 0  0 -1)  ( 0 -1  0)  ( 1  1  1)  ( 0 -1  0)  ( 1  1  1)  ( 0  0 -1)

  (-1 -1 -1)  (-1 -1 -1)  (-1 -1 -1)  (-1 -1 -1)  (-1 -1 -1)  (-1 -1 -1)
  ( 1  0  0)  ( 1  0  0)  ( 0  1  0)  ( 0  1  0)  ( 0  0  1)  ( 0  0  1)
  ( 0  1  0)  ( 0  0  1)  ( 1  0  0)  ( 0  0  1)  ( 1  0  0)  ( 0  1  0)

512 k-points: 8 x 8 x 8 Monkhorst-Pack grid
26 k-points in the irreducible part of the Brillouin zone
       k-points in crystal coordinates                weights
   0:     0.06250000    0.06250000   -0.06250000          6/512
   1:     0.18750000   -0.06250000   -0.06250000          8/512
   2:     0.18750000    0.06250000   -0.06250000         24/512
   3:     0.18750000    0.18750000   -0.18750000          6/512
   4:     0.31250000   -0.06250000   -0.06250000         24/512
   5:     0.31250000    0.06250000   -0.18750000         24/512
   6:     0.31250000    0.06250000   -0.06250000         24/512
   7:     0.31250000    0.18750000   -0.18750000         24/512
   8:     0.31250000    0.31250000   -0.31250000          6/512
   9:     0.31250000    0.31250000    0.18750000         12/512
          ...
  25:     0.43750000    0.43750000    0.43750000          8/512

Wave functions: Plane wave expansion
  Cutoff energy: 400.000 eV
  Number of coefficients (min, max): 319, 335
  Using FFTW library
  Eigensolver: None  MatrixOperator buffer_size: default value or 
                              see value of nblock in input file
Diagonalizer layout: Serial LAPACKOrthonormalizer layout: Serial LAPACK 

Davidson(niter=1, smin=None, normalize=True) 

Densities:
  Coarse grid: 12*12*12 grid
  Fine grid: 24*24*24 grid
  Total Charge: 0.000000 

Density mixing:
  Method: separate
  Backend: pulay
  Linear mixing parameter: 0.01
  Mixing with 11 old densities
  Damping of long wave oscillations: 100 

Hamiltonian:
  XC and Coulomb potentials evaluated on a 24*24*24 grid
  Using the PBE Exchange-Correlation functional
 

Memory estimate:
  Process memory now: 928.04 MiB
  Calculator: 6.61 MiB
    Density: 1.30 MiB
      Arrays: 0.46 MiB
      Localized functions: 0.26 MiB
      Mixer: 0.58 MiB
    Hamiltonian: 0.35 MiB
      Arrays: 0.34 MiB
      XC: 0.00 MiB
      Poisson: 0.00 MiB
      vbar: 0.01 MiB
    Wavefunctions: 4.96 MiB
      Arrays psit_nG: 3.46 MiB
      Eigensolver: 0.12 MiB
      Projections: 0.19 MiB
      Projectors: 0.97 MiB
      Overlap op: 0.07 MiB
      PW-descriptor: 0.16 MiB

Total number of cores used: 1

Number of atoms: 1
Number of atomic orbitals: 13
Number of bands in calculation: 13
Bands to converge: occupied states only
Number of valence electrons: 13

... initialized

Initializing position-dependent things.

Density initialized from atomic densities
Creating initial wave functions:
  13 bands from LCAO basis set

                
                
                
       Nb       
                
                
                
                

Positions:
   0 Nb     0.000000    0.000000    0.000000

Unit cell:
           periodic     x           y           z      points  spacing
  1. axis:    yes   -1.650000    1.650000    1.650000    12     0.1945
  2. axis:    yes    1.650000   -1.650000    1.650000    12     0.1945
  3. axis:    yes    1.650000    1.650000   -1.650000    12     0.1945

  Lengths:   2.857884   2.857884   2.857884
  Angles:  109.471221 109.471221 109.471221

Effective grid spacing dv^(1/3) = 0.2183

                     log10-error:    total        iterations:
           time      wfs    density  energy       fermi  poisson  magmom
iter:   1  22:22:52  +2.29   +inf   -10.828820    4               -0.0000
iter:   2  22:22:53  +0.00   +inf   -10.882225    4               -0.0000
iter:   3  22:22:54  -0.73   +inf   -10.889897    3               +0.0000
iter:   4  22:22:55  -1.41  -1.13   -10.869391    4               -0.0000
iter:   5  22:22:56  +0.09  -1.14   -10.311863    32              -0.0000
iter:   6  22:22:58  -0.47  -1.55   -10.332085    30              -0.0000
iter:   7  22:22:59  -0.90  -1.90   -10.302536    5               +0.0000
iter:   8  22:23:00  -0.78  -1.98   -10.311266    4               +0.0000
iter:   9  22:23:01  -1.25  -2.22   -10.297565    4               +0.0000
iter:  10  22:23:02  -2.20  -2.92   -10.298821    4               +0.0000
iter:  11  22:23:03  -2.55  -2.68   -10.297746    3               -0.0000
iter:  12  22:23:05  -3.29  -3.09   -10.297608    3               -0.0000
iter:  13  22:23:06  -4.01  -3.66   -10.297614    2               -0.0000
iter:  14  22:23:07  -4.04  -3.60   -10.297635    3               +0.0000
iter:  15  22:23:08  -4.97  -3.63   -10.297628    2               -0.0000
iter:  16  22:23:10  -4.70  -3.64   -10.297612    3               +0.0000
iter:  17  22:23:11  -5.84  -4.56   -10.297611    2               +0.0000
iter:  18  22:23:12  -6.81  -4.86   -10.297611    2               +0.0000
iter:  19  22:23:13  -6.39  -4.68   -10.297610    2               +0.0000
iter:  20  22:23:14  -7.44  -4.62   -10.297610    2               -0.0000

Converged after 20 iterations.

Dipole moment: (0.000000, -0.000000, 0.000000) |e|*Ang

Total magnetic moment: -0.000000
Local magnetic moments:
   0 Nb 0.000000

Energy contributions relative to reference atoms: (reference = -103906.147789)

Kinetic:         -1.051915
Potential:       -3.341839
External:        +0.000000
XC:              -5.871160
Entropy (-ST):   -0.002505
Local:           -0.031444
--------------------------
Free energy:    -10.298863
Extrapolated:   -10.297610

Spin contamination: 0.000000 electrons
Fermi level: 11.45397

Warning: Showing only first 2 kpts
                      Up                     Down
 Kpt  Band  Eigenvalues  Occupancy  Eigenvalues  Occupancy
  0     4      5.79027    0.01172      5.79027    0.01172
  0     5     11.72748    0.00000     11.72748    0.00000
  0     6     11.72775    0.00000     11.72775    0.00000
  0     7     11.90546    0.00000     11.90546    0.00000

  1     4      6.37274    0.01562      6.37274    0.01562
  1     5     11.28464    0.01562     11.28464    0.01562
  1     6     11.28483    0.01562     11.28483    0.01562
  1     7     12.86224    0.00000     12.86224    0.00000


Input parameters:
  convergence: {bands: all}
  eigensolver: {name: cg,
                niter: 5}
  fixdensity: True
  kpts: {npoints: 50,
         path: GHNGP}
  nbands: -4
  symmetry: off

Initialize ...

Nb-setup:
  name: Niobium
  id: 2c58cec662e8907f1eddae40307d1f1e
  Z: 41
  valence: 13
  core: 28
  charge: 0.0
  file: /usr/share/gpaw-setups/Nb.PBE.gz
  cutoffs: 1.27(comp), 2.35(filt), 1.51(core), lmax=2
  valence states:
                energy  radius
    4s(2.00)   -58.361   1.323
    5s(1.00)    -3.980   1.323
    4p(6.00)   -34.526   1.323
    5p(0.00)    -1.111   1.323
    4d(4.00)    -3.041   1.244
    *d          24.171   1.244

  Using partial waves for Nb as LCAO basis

Reference energy: -103906.147789

Spin-polarized calculation.
Magnetic moment:  0.000000

Occupation numbers:
  Fixed Fermi level
  Fermi-Dirac: width=0.0200 eV

Convergence criteria:
  Maximum total energy change: 0.0005 eV / electron
  Maximum integral of absolute density change: 0.0001 electrons
  Maximum integral of absolute eigenstate change: 4e-08 eV^2
  Maximum number of iterations: 1500

Symmetries present (total): 1

  ( 1  0  0)
  ( 0  1  0)
  ( 0  0  1)

50 k-points
50 k-points in the irreducible part of the Brillouin zone
       k-points in crystal coordinates                weights
   0:     0.00000000    0.00000000    0.00000000          1/50
   1:     0.03571429   -0.03571429    0.03571429          1/50
   2:     0.07142857   -0.07142857    0.07142857          1/50
   3:     0.10714286   -0.10714286    0.10714286          1/50
   4:     0.14285714   -0.14285714    0.14285714          1/50
   5:     0.17857143   -0.17857143    0.17857143          1/50
   6:     0.21428571   -0.21428571    0.21428571          1/50
   7:     0.25000000   -0.25000000    0.25000000          1/50
   8:     0.28571429   -0.28571429    0.28571429          1/50
   9:     0.32142857   -0.32142857    0.32142857          1/50
          ...
  49:     0.25000000    0.25000000    0.25000000          1/50

Wave functions: Plane wave expansion
  Cutoff energy: 400.000 eV
  Number of coefficients (min, max): 298, 339
  Using FFTW library
  Eigensolver: None  MatrixOperator buffer_size: default value or 
                              see value of nblock in input file
Diagonalizer layout: Serial LAPACKOrthonormalizer layout: Serial LAPACK 

CG(niter=5, rtol=3.0e-01) 

No density mixing

Memory estimate:
  Process memory now: 996.73 MiB
  Calculator: 9.35 MiB
    Density: 1.30 MiB
      Arrays: 0.46 MiB
      Localized functions: 0.26 MiB
      Mixer: 0.58 MiB
    Hamiltonian: 0.35 MiB
      Arrays: 0.34 MiB
      XC: 0.00 MiB
      Poisson: 0.00 MiB
      vbar: 0.01 MiB
    Wavefunctions: 7.71 MiB
      Arrays psit_nG: 5.17 MiB
      Eigensolver: 0.08 MiB
      Projections: 0.27 MiB
      Projectors: 1.88 MiB
      Overlap op: 0.05 MiB
      PW-descriptor: 0.25 MiB

Total number of cores used: 1

Number of atoms: 1
Number of atomic orbitals: 13
Number of bands in calculation: 10
Bands to converge: all
Number of valence electrons: 13

... initialized

Initializing position-dependent things.

Creating initial wave functions:
  10 bands from LCAO basis set

                
                
                
       Nb       
                
                
                
                

Positions:
   0 Nb     0.000000    0.000000    0.000000

Unit cell:
           periodic     x           y           z      points  spacing
  1. axis:    yes   -1.650000    1.650000    1.650000    12     0.1945
  2. axis:    yes    1.650000   -1.650000    1.650000    12     0.1945
  3. axis:    yes    1.650000    1.650000   -1.650000    12     0.1945

  Lengths:   2.857884   2.857884   2.857884
  Angles:  109.471221 109.471221 109.471221

Effective grid spacing dv^(1/3) = 0.2183

                     log10-error:    total        iterations:
           time      wfs    density  energy       fermi  poisson  magmom
iter:   1  22:23:21  +0.92          -10.862830    34              +0.0000
iter:   2  22:23:24  -0.07          -10.888769    29              +0.0000
iter:   3  22:23:28  -0.90          -10.892578    31              +0.0000
iter:   4  22:23:32  -1.80          -10.893220    34              +0.0000
iter:   5  22:23:35  -2.64          -10.893307    34              +0.0000
iter:   6  22:23:39  -3.39          -10.893321    30              +0.0000
iter:   7  22:23:43  -4.11          -10.893324    34              +0.0000
iter:   8  22:23:46  -4.71          -10.893325    34              +0.0000
iter:   9  22:23:48  -5.38          -10.893325    32              +0.0000
iter:  10  22:23:50  -6.00          -10.893325    32              +0.0000
iter:  11  22:23:51  -6.65          -10.893325    32              +0.0000
iter:  12  22:23:52  -7.28          -10.893325    32              +0.0000
iter:  13  22:23:53  -7.81          -10.893325    32              +0.0000

Converged after 13 iterations.

Dipole moment: (0.000000, -0.000000, 0.000000) |e|*Ang

Total magnetic moment: 0.000000
Local magnetic moments:
   0 Nb 0.000000

Energy contributions relative to reference atoms: (reference = -103906.147789)

Kinetic:         -1.644741
Potential:       -3.341841
External:        +0.000000
XC:              -5.871162
Entropy (-ST):   -0.008275
Local:           -0.031442
--------------------------
Free energy:    -10.897462
Extrapolated:   -10.893325

Spin contamination: 0.000000 electrons
Fixed Fermi level: 11.45397

Warning: Showing only first 2 kpts
                      Up                     Down
 Kpt  Band  Eigenvalues  Occupancy  Eigenvalues  Occupancy
  0     4      5.47067    0.02000      5.47067    0.02000
  0     5     11.76032    0.01001     11.76032    0.01001
  0     6     11.76032    0.01001     11.76032    0.01001
  0     7     11.76075    0.00990     11.76075    0.00990

  1     4      5.57660    0.02000      5.57660    0.02000
  1     5     11.74798    0.01300     11.74798    0.01300
  1     6     11.74826    0.01294     11.74826    0.01294
  1     7     11.80794    0.00170     11.80794    0.00170


Timing:                              incl.     excl.
-----------------------------------------------------------
Hamiltonian:                         0.620     0.001   0.0% |
 Atomic:                             0.502     0.002   0.0% |
  XC Correction:                     0.500     0.500   0.8% |
 Calculate atomic Hamiltonians:      0.005     0.005   0.0% |
 Communicate:                        0.000     0.000   0.0% |
 Initialize Hamiltonian:             0.000     0.000   0.0% |
 Poisson:                            0.000     0.000   0.0% |
 XC 3D grid:                         0.111     0.111   0.2% |
LCAO initialization:                 3.705     0.207   0.3% |
 LCAO eigensolver:                   1.812     0.014   0.0% |
  Calculate projections:             0.005     0.005   0.0% |
  DenseAtomicCorrection:             0.026     0.026   0.0% |
  Distribute overlap matrix:         0.006     0.006   0.0% |
  Orbital Layouts:                   0.092     0.092   0.1% |
  Potential matrix:                  0.887     0.887   1.3% ||
  Sum over cells:                    0.782     0.782   1.2% |
 LCAO to grid:                       0.893     0.893   1.3% ||
 Set positions (LCAO WFS):           0.792     0.001   0.0% |
  Basic WFS set positions:           0.002     0.002   0.0% |
  Basis functions set positions:     0.000     0.000   0.0% |
  TCI: Calculate S, T, P:            0.790     0.790   1.2% |
PWDescriptor:                        0.016     0.016   0.0% |
Redistribute:                        0.000     0.000   0.0% |
SCF-cycle:                          58.765     5.650   8.5% |--|
 CG:                                26.887    23.647  35.8% |-------------|
  CG: orthonormalize:                3.240     1.849   2.8% ||
   CG: overlap:                      0.866     0.866   1.3% ||
   CG: overlap2:                     0.525     0.525   0.8% |
 Davidson:                          11.179     6.085   9.2% |---|
  calc. matrices:                    2.796     2.796   4.2% |-|
  diagonalize:                       1.876     1.876   2.8% ||
  rotate_psi:                        0.422     0.422   0.6% |
 Density:                            2.302     0.001   0.0% |
  Atomic density matrices:           0.039     0.039   0.1% |
  Mix:                               0.101     0.101   0.2% |
  Multipole moments:                 0.002     0.002   0.0% |
  Pseudo density:                    2.159     1.873   2.8% ||
   Symmetrize density:               0.286     0.286   0.4% |
 Hamiltonian:                        5.261     0.011   0.0% |
  Atomic:                            4.378     0.017   0.0% |
   XC Correction:                    4.361     4.361   6.6% |--|
  Calculate atomic Hamiltonians:     0.043     0.043   0.1% |
  Communicate:                       0.000     0.000   0.0% |
  Poisson:                           0.004     0.004   0.0% |
  XC 3D grid:                        0.824     0.824   1.2% |
 Orthonormalize:                     0.170     0.011   0.0% |
  Band Layouts:                      0.011     0.003   0.0% |
   Inverse Cholesky:                 0.008     0.008   0.0% |
  calc_s_matrix:                     0.027     0.027   0.0% |
  projections:                       0.095     0.095   0.1% |
  rotate_psi:                        0.025     0.025   0.0% |
 Residuals:                          1.084     1.084   1.6% ||
 Subspace diag:                      6.232     0.292   0.4% |
  Band Layouts:                      0.910     0.085   0.1% |
   Diagonalize:                      0.763     0.763   1.2% |
   Distribute results:               0.062     0.062   0.1% |
  calc_h_matrix:                     4.321     4.321   6.5% |--|
  rotate_psi:                        0.709     0.709   1.1% |
Set symmetry:                        0.100     0.100   0.2% |
Other:                               2.925     2.925   4.4% |-|
-----------------------------------------------------------
Total:                                        66.131 100.0%

Date: Thu Feb 11 22:23:54 2021
element =  Nb
struct =  bcc
kpts =  (8,8,8)
element =  Nb
configuration =  [Kr] 4d3 5s2 5p0
valence =  ['4d', '5s', '5p']
occupations =  {'4d': 3, '5s': 2}
nls =  4d
rNum =  600
lmax =  d
*******************************************
Starting confinement parameter optimization
Adjustable parameters and initial values:
  Nb_4d.r0 : 6.198302
  Nb_5p.r0 : 6.198302
  Nb_5s.r0 : 6.198302
  Nb_n.r0 : 9.297453
*******************************************

OPT_VAL: 6.198301692745124   6.198301692745124   6.198301692745124   9.297452539117685
VCONF:
  Nb_4d : PowerConfinement(r0=6.198302, s=2.000000)
  Nb_5p : PowerConfinement(r0=6.198302, s=2.000000)
  Nb_5s : PowerConfinement(r0=6.198302, s=2.000000)
  Nb_n : PowerConfinement(r0=9.297453, s=2.000000)
RESIDUAL: 0.0

OPT_VAL: 6.398301692745124   6.198301692745124   6.198301692745124   9.297452539117685
VCONF:
  Nb_4d : PowerConfinement(r0=6.398302, s=2.000000)
  Nb_5p : PowerConfinement(r0=6.198302, s=2.000000)
  Nb_5s : PowerConfinement(r0=6.198302, s=2.000000)
  Nb_n : PowerConfinement(r0=9.297453, s=2.000000)
RESIDUAL: 0.0

OPT_VAL: 6.198301692745124   6.398301692745124   6.198301692745124   9.297452539117685
VCONF:
  Nb_4d : PowerConfinement(r0=6.198302, s=2.000000)
  Nb_5p : PowerConfinement(r0=6.398302, s=2.000000)
  Nb_5s : PowerConfinement(r0=6.198302, s=2.000000)
  Nb_n : PowerConfinement(r0=9.297453, s=2.000000)
RESIDUAL: 0.0

OPT_VAL: 6.198301692745124   6.198301692745124   6.398301692745124   9.297452539117685
VCONF:
  Nb_4d : PowerConfinement(r0=6.198302, s=2.000000)
  Nb_5p : PowerConfinement(r0=6.198302, s=2.000000)
  Nb_5s : PowerConfinement(r0=6.398302, s=2.000000)
  Nb_n : PowerConfinement(r0=9.297453, s=2.000000)
RESIDUAL: 0.0

OPT_VAL: 6.198301692745124   6.198301692745124   6.198301692745124   9.497452539117685
VCONF:
  Nb_4d : PowerConfinement(r0=6.198302, s=2.000000)
  Nb_5p : PowerConfinement(r0=6.198302, s=2.000000)
  Nb_5s : PowerConfinement(r0=6.198302, s=2.000000)
  Nb_n : PowerConfinement(r0=9.497453, s=2.000000)
RESIDUAL: 0.0

OPT_VAL: 6.223301692745125   6.198301692745124   6.198301692745124   9.297452539117685
VCONF:
  Nb_4d : PowerConfinement(r0=6.223302, s=2.000000)
  Nb_5p : PowerConfinement(r0=6.198302, s=2.000000)
  Nb_5s : PowerConfinement(r0=6.198302, s=2.000000)
  Nb_n : PowerConfinement(r0=9.297453, s=2.000000)
RESIDUAL: 0.0

OPT_VAL: 6.198301692745124   6.223301692745125   6.198301692745124   9.297452539117685
VCONF:
  Nb_4d : PowerConfinement(r0=6.198302, s=2.000000)
  Nb_5p : PowerConfinement(r0=6.223302, s=2.000000)
  Nb_5s : PowerConfinement(r0=6.198302, s=2.000000)
  Nb_n : PowerConfinement(r0=9.297453, s=2.000000)
RESIDUAL: 0.0

OPT_VAL: 6.198301692745124   6.198301692745124   6.223301692745125   9.297452539117685
VCONF:
  Nb_4d : PowerConfinement(r0=6.198302, s=2.000000)
  Nb_5p : PowerConfinement(r0=6.198302, s=2.000000)
  Nb_5s : PowerConfinement(r0=6.223302, s=2.000000)
  Nb_n : PowerConfinement(r0=9.297453, s=2.000000)
RESIDUAL: 0.0

OPT_VAL: 6.198301692745124   6.198301692745124   6.198301692745124   9.322452539117686
VCONF:
  Nb_4d : PowerConfinement(r0=6.198302, s=2.000000)
  Nb_5p : PowerConfinement(r0=6.198302, s=2.000000)
  Nb_5s : PowerConfinement(r0=6.198302, s=2.000000)
  Nb_n : PowerConfinement(r0=9.322453, s=2.000000)
RESIDUAL: 0.0

OPT_VAL: 6.203301692745124   6.198301692745124   6.198301692745124   9.297452539117685
VCONF:
  Nb_4d : PowerConfinement(r0=6.203302, s=2.000000)
  Nb_5p : PowerConfinement(r0=6.198302, s=2.000000)
  Nb_5s : PowerConfinement(r0=6.198302, s=2.000000)
  Nb_n : PowerConfinement(r0=9.297453, s=2.000000)
RESIDUAL: 0.0

OPT_VAL: 6.198301692745124   6.203301692745124   6.198301692745124   9.297452539117685
VCONF:
  Nb_4d : PowerConfinement(r0=6.198302, s=2.000000)
  Nb_5p : PowerConfinement(r0=6.203302, s=2.000000)
  Nb_5s : PowerConfinement(r0=6.198302, s=2.000000)
  Nb_n : PowerConfinement(r0=9.297453, s=2.000000)
RESIDUAL: 0.0

OPT_VAL: 6.198301692745124   6.198301692745124   6.203301692745124   9.297452539117685
VCONF:
  Nb_4d : PowerConfinement(r0=6.198302, s=2.000000)
  Nb_5p : PowerConfinement(r0=6.198302, s=2.000000)
  Nb_5s : PowerConfinement(r0=6.203302, s=2.000000)
  Nb_n : PowerConfinement(r0=9.297453, s=2.000000)
RESIDUAL: 0.0

OPT_VAL: 6.198301692745124   6.198301692745124   6.198301692745124   9.302452539117686
VCONF:
  Nb_4d : PowerConfinement(r0=6.198302, s=2.000000)
  Nb_5p : PowerConfinement(r0=6.198302, s=2.000000)
  Nb_5s : PowerConfinement(r0=6.198302, s=2.000000)
  Nb_n : PowerConfinement(r0=9.302453, s=2.000000)
RESIDUAL: 0.0

*******************************************
Optimization finished after 13 iterations
Adjustable parameters and final values:
  Nb_4d.r0 : 6.198302
  Nb_5p.r0 : 6.198302
  Nb_5s.r0 : 6.198302
  Nb_n.r0 : 9.297453
*******************************************

VCONF:
  Nb_4d : PowerConfinement(r0=6.198302, s=2.000000)
  Nb_5p : PowerConfinement(r0=6.198302, s=2.000000)
  Nb_5s : PowerConfinement(r0=6.198302, s=2.000000)
  Nb_n : PowerConfinement(r0=9.297453, s=2.000000)
