element =  Hg
struct =  bcc
nbands =  -4
path =  GHNGP
kpts =  (8,8,8)
lattice constant a =  3.894
lattice constant b =  3.894
lattice constant c =  3.894
alpha angle =  90.0

  ___ ___ ___ _ _ _  
 |   |   |_  | | | | 
 | | | | | . | | | | 
 |__ |  _|___|_____|  1.3.1b1
 |___|_|             

User:   inukai@DESKTOP-12SE80T
Date:   Fri Feb 12 06:57:19 2021
Arch:   x86_64
Pid:    20275
Python: 3.6.9
gpaw:   /usr/lib/python3/dist-packages/gpaw
_gpaw:  /usr/lib/python3/dist-packages/_gpaw.cpython-36m-x86_64-linux-gnu.so
ase:    /home/inukai/hotcent/ase-3.19.3/ase (version 3.19.3)
numpy:  /home/inukai/.local/lib/python3.6/site-packages/numpy (version 1.19.5)
scipy:  /home/inukai/.local/lib/python3.6/site-packages/scipy (version 1.5.4)
units:  Angstrom and eV
cores:  1

Input parameters:
  kpts: [8 8 8]
  maxiter: 1500
  mixer: {backend: pulay,
          beta: 0.01,
          method: separate,
          nmaxold: 11,
          weight: 100.0}
  mode: {ecut: 400.0,
         name: pw}
  occupations: {name: fermi-dirac,
                width: 0.02}
  spinpol: True
  xc: PBE

System changes: positions, numbers, cell, pbc, initial_charges, initial_magmoms 

Initialize ...

Hg-setup:
  name: Mercury
  id: 0b51cb891d82143d22b15bac899cb056
  Z: 80
  valence: 18
  core: 62
  charge: 0.0
  file: /usr/share/gpaw-setups/Hg.PBE.gz
  cutoffs: 1.29(comp), 2.17(filt), 2.06(core), lmax=2
  valence states:
                energy  radius
    6s(2.00)    -6.783   1.307
    5p(6.00)   -66.572   1.291
    6p(0.00)    -1.056   1.291
    5d(10.00)    -9.891   1.302
    *s          20.429   1.307
    *d          17.320   1.302

  Using partial waves for Hg as LCAO basis

Reference energy: -533155.778727

Spin-polarized calculation.
Magnetic moment:  0.000000

Occupation numbers:
  Fermi-Dirac: width=0.0200 eV

Convergence criteria:
  Maximum total energy change: 0.0005 eV / electron
  Maximum integral of absolute density change: 0.0001 electrons
  Maximum integral of absolute eigenstate change: 4e-08 eV^2
  Maximum number of iterations: 1500

Symmetries present (total): 48

  ( 1  1  1)  ( 1  1  1)  ( 1  1  1)  ( 1  1  1)  ( 1  1  1)  ( 1  1  1)
  ( 0  0 -1)  ( 0  0 -1)  ( 0 -1  0)  ( 0 -1  0)  (-1  0  0)  (-1  0  0)
  ( 0 -1  0)  (-1  0  0)  ( 0  0 -1)  (-1  0  0)  ( 0  0 -1)  ( 0 -1  0)

  ( 1  0  0)  ( 1  0  0)  ( 1  0  0)  ( 1  0  0)  ( 1  0  0)  ( 1  0  0)
  ( 0  1  0)  ( 0  1  0)  ( 0  0  1)  ( 0  0  1)  (-1 -1 -1)  (-1 -1 -1)
  ( 0  0  1)  (-1 -1 -1)  ( 0  1  0)  (-1 -1 -1)  ( 0  1  0)  ( 0  0  1)

  ( 0  1  0)  ( 0  1  0)  ( 0  1  0)  ( 0  1  0)  ( 0  1  0)  ( 0  1  0)
  ( 1  0  0)  ( 1  0  0)  ( 0  0  1)  ( 0  0  1)  (-1 -1 -1)  (-1 -1 -1)
  ( 0  0  1)  (-1 -1 -1)  ( 1  0  0)  (-1 -1 -1)  ( 1  0  0)  ( 0  0  1)

  ( 0  0  1)  ( 0  0  1)  ( 0  0  1)  ( 0  0  1)  ( 0  0  1)  ( 0  0  1)
  ( 1  0  0)  ( 1  0  0)  ( 0  1  0)  ( 0  1  0)  (-1 -1 -1)  (-1 -1 -1)
  ( 0  1  0)  (-1 -1 -1)  ( 1  0  0)  (-1 -1 -1)  ( 1  0  0)  ( 0  1  0)

  ( 0  0 -1)  ( 0  0 -1)  ( 0  0 -1)  ( 0  0 -1)  ( 0  0 -1)  ( 0  0 -1)
  ( 1  1  1)  ( 1  1  1)  ( 0 -1  0)  ( 0 -1  0)  (-1  0  0)  (-1  0  0)
  ( 0 -1  0)  (-1  0  0)  ( 1  1  1)  (-1  0  0)  ( 1  1  1)  ( 0 -1  0)

  ( 0 -1  0)  ( 0 -1  0)  ( 0 -1  0)  ( 0 -1  0)  ( 0 -1  0)  ( 0 -1  0)
  ( 1  1  1)  ( 1  1  1)  ( 0  0 -1)  ( 0  0 -1)  (-1  0  0)  (-1  0  0)
  ( 0  0 -1)  (-1  0  0)  ( 1  1  1)  (-1  0  0)  ( 1  1  1)  ( 0  0 -1)

  (-1  0  0)  (-1  0  0)  (-1  0  0)  (-1  0  0)  (-1  0  0)  (-1  0  0)
  ( 1  1  1)  ( 1  1  1)  ( 0  0 -1)  ( 0  0 -1)  ( 0 -1  0)  ( 0 -1  0)
  ( 0  0 -1)  ( 0 -1  0)  ( 1  1  1)  ( 0 -1  0)  ( 1  1  1)  ( 0  0 -1)

  (-1 -1 -1)  (-1 -1 -1)  (-1 -1 -1)  (-1 -1 -1)  (-1 -1 -1)  (-1 -1 -1)
  ( 1  0  0)  ( 1  0  0)  ( 0  1  0)  ( 0  1  0)  ( 0  0  1)  ( 0  0  1)
  ( 0  1  0)  ( 0  0  1)  ( 1  0  0)  ( 0  0  1)  ( 1  0  0)  ( 0  1  0)

512 k-points: 8 x 8 x 8 Monkhorst-Pack grid
26 k-points in the irreducible part of the Brillouin zone
       k-points in crystal coordinates                weights
   0:     0.06250000    0.06250000   -0.06250000          6/512
   1:     0.18750000   -0.06250000   -0.06250000          8/512
   2:     0.18750000    0.06250000   -0.06250000         24/512
   3:     0.18750000    0.18750000   -0.18750000          6/512
   4:     0.31250000   -0.06250000   -0.06250000         24/512
   5:     0.31250000    0.06250000   -0.18750000         24/512
   6:     0.31250000    0.06250000   -0.06250000         24/512
   7:     0.31250000    0.18750000   -0.18750000         24/512
   8:     0.31250000    0.31250000   -0.31250000          6/512
   9:     0.31250000    0.31250000    0.18750000         12/512
          ...
  25:     0.43750000    0.43750000    0.43750000          8/512

Wave functions: Plane wave expansion
  Cutoff energy: 400.000 eV
  Number of coefficients (min, max): 518, 549
  Using FFTW library
  Eigensolver: None  MatrixOperator buffer_size: default value or 
                              see value of nblock in input file
Diagonalizer layout: Serial LAPACKOrthonormalizer layout: Serial LAPACK 

Davidson(niter=1, smin=None, normalize=True) 

Densities:
  Coarse grid: 14*14*14 grid
  Fine grid: 28*28*28 grid
  Total Charge: 0.000000 

Density mixing:
  Method: separate
  Backend: pulay
  Linear mixing parameter: 0.01
  Mixing with 11 old densities
  Damping of long wave oscillations: 100 

Hamiltonian:
  XC and Coulomb potentials evaluated on a 28*28*28 grid
  Using the PBE Exchange-Correlation functional
 

Memory estimate:
  Process memory now: 928.42 MiB
  Calculator: 10.14 MiB
    Density: 2.06 MiB
      Arrays: 0.73 MiB
      Localized functions: 0.41 MiB
      Mixer: 0.92 MiB
    Hamiltonian: 0.55 MiB
      Arrays: 0.54 MiB
      XC: 0.00 MiB
      Poisson: 0.00 MiB
      vbar: 0.01 MiB
    Wavefunctions: 7.53 MiB
      Arrays psit_nG: 5.23 MiB
      Eigensolver: 0.16 MiB
      Projections: 0.17 MiB
      Projectors: 1.59 MiB
      Overlap op: 0.10 MiB
      PW-descriptor: 0.26 MiB

Total number of cores used: 1

Number of atoms: 1
Number of atomic orbitals: 12
Number of bands in calculation: 12
Bands to converge: occupied states only
Number of valence electrons: 18

... initialized

Initializing position-dependent things.

Density initialized from atomic densities
Creating initial wave functions:
  12 bands from LCAO basis set

                
                
                
       Hg       
                
                
                
                

Positions:
   0 Hg     0.000000    0.000000    0.000000

Unit cell:
           periodic     x           y           z      points  spacing
  1. axis:    yes   -1.947000    1.947000    1.947000    14     0.1967
  2. axis:    yes    1.947000   -1.947000    1.947000    14     0.1967
  3. axis:    yes    1.947000    1.947000   -1.947000    14     0.1967

  Lengths:   3.372303   3.372303   3.372303
  Angles:  109.471221 109.471221 109.471221

Effective grid spacing dv^(1/3) = 0.2208

                     log10-error:    total        iterations:
           time      wfs    density  energy       fermi  poisson  magmom
iter:   1  06:57:23  +1.33   +inf    -0.778800    28              +0.0000
iter:   2  06:57:24  -0.25   +inf    -0.807156    3               -0.0000
iter:   3  06:57:25  -0.70   +inf    -0.813007    2               +0.0000
iter:   4  06:57:26  -1.10  -1.82    -0.815016    3               -0.0000
iter:   5  06:57:27  -1.15  -1.81    -0.822975    7               +0.0000
iter:   6  06:57:29  -0.40  -1.71    -0.838181    28              -0.0000
iter:   7  06:57:30  -1.99  -2.27    -0.839314    2               -0.0000
iter:   8  06:57:32  -2.59  -2.26    -0.838215    3               -0.0000
iter:   9  06:57:33  -2.63  -2.25    -0.843192    4               +0.0000
iter:  10  06:57:34  -1.19  -2.25    -0.824343    6               -0.0000
iter:  11  06:57:36  -0.14  -2.11    -0.914551    27              -0.0000
iter:  12  06:57:37  -0.12  -1.56    -0.841524    28              -0.0000
iter:  13  06:57:39  -0.39  -2.87    -0.857596    5               -0.0000
iter:  14  06:57:40  -1.78  -1.83    -0.858492    3               -0.0000
iter:  15  06:57:42  -2.69  -1.87    -0.855301    4               -0.0000
iter:  16  06:57:43  -1.38  -1.96    -0.848124    6               -0.0000
iter:  17  06:57:44  -2.89  -2.34    -0.848717    3               -0.0000
iter:  18  06:57:46  -1.28  -2.26    -0.840950    6               +0.0000
iter:  19  06:57:47  -2.58  -2.57    -0.841480    3               +0.0000
iter:  20  06:57:49  -3.15  -2.61    -0.841486    3               +0.0000
iter:  21  06:57:50  -3.14  -2.69    -0.841241    3               +0.0000
iter:  22  06:57:51  -2.76  -2.80    -0.841406    3               -0.0000
iter:  23  06:57:53  -1.39  -2.98    -0.847635    4               -0.0000
iter:  24  06:57:54  -2.06  -2.32    -0.845618    3               -0.0000
iter:  25  06:57:55  -2.50  -2.48    -0.843698    3               -0.0000
iter:  26  06:57:57  -2.11  -2.64    -0.841307    3               -0.0000
iter:  27  06:57:58  -2.66  -2.79    -0.842365    3               -0.0000
iter:  28  06:58:00  -2.86  -2.92    -0.841724    4               -0.0002
iter:  29  06:58:01  -3.17  -2.93    -0.842093    3               -0.0001
iter:  30  06:58:02  -3.74  -2.97    -0.841795    3               -0.0000
iter:  31  06:58:04  -4.62  -3.10    -0.841810    2               -0.0000
iter:  32  06:58:05  -3.96  -3.17    -0.842006    3               +0.0000
iter:  33  06:58:06  -4.37  -3.49    -0.842012    3               +0.0000
iter:  34  06:58:08  -4.33  -3.37    -0.842032    3               +0.0001
iter:  35  06:58:09  -4.33  -3.54    -0.842025    3               +0.0009
iter:  36  06:58:11  -3.75  -3.54    -0.842073    3               -0.0014
iter:  37  06:58:12  -5.03  -3.39    -0.842072    2               -0.0014
iter:  38  06:58:13  -4.22  -3.46    -0.842051    3               -0.0015
iter:  39  06:58:15  -4.20  -3.20    -0.842069    3               -0.0011
iter:  40  06:58:16  -3.90  -3.49    -0.842025    3               -0.0006
iter:  41  06:58:18  -3.09  -3.39    -0.842165    2               +0.0002
iter:  42  06:58:19  -3.40  -3.31    -0.842043    3               -0.0001
iter:  43  06:58:20  -3.94  -3.83    -0.842037    3               -0.0005
iter:  44  06:58:22  -4.20  -3.80    -0.842021    2               -0.0003
iter:  45  06:58:23  -3.85  -3.65    -0.842041    3               -0.0001
iter:  46  06:58:24  -4.55  -3.52    -0.842075    2               +0.0001
iter:  47  06:58:26  -3.73  -3.51    -0.842207    3               -0.0003
iter:  48  06:58:27  -3.00  -3.24    -0.842035    3               +0.0001
iter:  49  06:58:29  -3.68  -3.89    -0.842060    3               -0.0000
iter:  50  06:58:30  -3.38  -3.61    -0.842054    3               -0.0002
iter:  51  06:58:31  -2.68  -3.67    -0.842302    3               +0.0016
iter:  52  06:58:33  -3.95  -3.18    -0.842160    3               +0.0021
iter:  53  06:58:34  -3.20  -3.28    -0.842595    3               +0.0026
iter:  54  06:58:36  -2.95  -3.02    -0.842095    3               +0.0019
iter:  55  06:58:37  -4.34  -3.43    -0.842048    3               +0.0017
iter:  56  06:58:38  -4.57  -3.49    -0.842076    2               +0.0017
iter:  57  06:58:40  -3.44  -3.44    -0.842276    3               +0.0024
iter:  58  06:58:41  -2.01  -3.18    -0.842904    4               +0.0000
iter:  59  06:58:42  -3.58  -2.94    -0.842627    3               +0.0001
iter:  60  06:58:44  -4.79  -3.03    -0.842698    2               -0.0000
iter:  61  06:58:45  -4.19  -2.98    -0.842936    3               +0.0001
iter:  62  06:58:47  -4.34  -2.92    -0.842787    3               -0.0001
iter:  63  06:58:48  -3.36  -2.97    -0.843433    3               -0.0005
iter:  64  06:58:49  -2.34  -2.83    -0.842050    4               +0.0010
iter:  65  06:58:51  -4.52  -3.54    -0.842036    2               +0.0012
iter:  66  06:58:52  -3.83  -3.56    -0.842115    3               +0.0011
iter:  67  06:58:54  -3.95  -3.39    -0.842238    3               +0.0012
iter:  68  06:58:55  -3.40  -3.22    -0.842629    3               +0.0007
iter:  69  06:58:56  -4.21  -3.02    -0.842480    3               +0.0009
iter:  70  06:58:58  -4.47  -3.07    -0.842612    2               +0.0003
iter:  71  06:58:59  -6.01  -3.02    -0.842616    2               +0.0004
iter:  72  06:59:00  -5.02  -3.02    -0.842557    3               +0.0002
iter:  73  06:59:02  -5.99  -3.06    -0.842574    2               +0.0002
iter:  74  06:59:03  -4.12  -3.05    -0.842787    3               +0.0001
iter:  75  06:59:05  -3.84  -2.96    -0.842505    3               +0.0003
iter:  76  06:59:06  -4.16  -3.05    -0.842340    3               +0.0006
iter:  77  06:59:07  -4.97  -3.12    -0.842384    2               +0.0004
iter:  78  06:59:09  -2.70  -3.11    -0.842028    3               +0.0011
iter:  79  06:59:10  -4.69  -3.65    -0.842038    2               +0.0008
iter:  80  06:59:11  -4.16  -3.77    -0.842074    3               +0.0010
iter:  81  06:59:13  -4.55  -3.55    -0.842050    2               +0.0009
iter:  82  06:59:14  -3.63  -3.69    -0.842174    3               +0.0008
iter:  83  06:59:16  -3.09  -3.32    -0.842034    3               +0.0006
iter:  84  06:59:17  -3.35  -3.87    -0.842091    3               +0.0013
iter:  85  06:59:18  -2.80  -3.46    -0.842122    3               +0.0014
iter:  86  06:59:20  -4.30  -3.37    -0.842220    2               +0.0004
iter:  87  06:59:21  -5.24  -3.27    -0.842248    2               +0.0005
iter:  88  06:59:23  -5.44  -3.24    -0.842276    2               +0.0007
iter:  89  06:59:24  -3.20  -3.21    -0.842813    3               +0.0002
iter:  90  06:59:25  -3.40  -2.96    -0.842392    3               +0.0002
iter:  91  06:59:27  -3.97  -3.13    -0.842599    3               -0.0002
iter:  92  06:59:28  -4.33  -3.02    -0.842459    3               -0.0001
iter:  93  06:59:29  -3.94  -3.08    -0.842273    3               +0.0001
iter:  94  06:59:31  -3.06  -3.21    -0.842891    3               -0.0008
iter:  95  06:59:32  -2.10  -2.93    -0.842180    4               +0.0017
iter:  96  06:59:34  -2.80  -3.28    -0.842051    3               +0.0006
iter:  97  06:59:35  -3.74  -3.79    -0.842031    3               +0.0011
iter:  98  06:59:36  -3.14  -3.64    -0.842145    3               +0.0004
iter:  99  06:59:38  -5.36  -3.41    -0.842137    2               +0.0007
iter: 100  06:59:39  -3.89  -3.42    -0.842054    3               +0.0008
iter: 101  06:59:40  -3.65  -3.75    -0.842175    3               +0.0003
iter: 102  06:59:42  -5.06  -3.36    -0.842212    2               +0.0004
iter: 103  06:59:43  -4.42  -3.30    -0.842145    3               +0.0005
iter: 104  06:59:44  -5.09  -3.40    -0.842116    2               +0.0007
iter: 105  06:59:46  -3.77  -3.46    -0.842269    3               +0.0005
iter: 106  06:59:47  -4.61  -3.24    -0.842352    3               +0.0003
iter: 107  06:59:49  -4.34  -3.16    -0.842254    3               +0.0002
iter: 108  06:59:50  -3.77  -3.24    -0.842103    3               +0.0008
iter: 109  06:59:51  -3.95  -3.46    -0.842214    3               +0.0004
iter: 110  06:59:53  -3.58  -3.28    -0.842063    3               +0.0008
iter: 111  06:59:54  -4.10  -3.63    -0.842127    3               +0.0007
iter: 112  06:59:56  -5.62  -3.41    -0.842142    2               +0.0007
iter: 113  06:59:57  -3.96  -3.38    -0.842060    3               +0.0008
iter: 114  06:59:58  -3.48  -3.66    -0.842233    3               +0.0003
iter: 115  07:00:00  -4.83  -3.25    -0.842192    2               +0.0003
iter: 116  07:00:01  -4.97  -3.31    -0.842157    2               -0.0001
iter: 117  07:00:02  -4.56  -3.35    -0.842110    3               +0.0004
iter: 118  07:00:04  -3.81  -3.44    -0.842248    3               +0.0003
iter: 119  07:00:05  -2.73  -3.23    -0.842050    3               +0.0016
iter: 120  07:00:07  -2.91  -3.47    -0.842554    3               +0.0021
iter: 121  07:00:08  -3.37  -3.04    -0.842247    3               +0.0012
iter: 122  07:00:09  -3.40  -3.24    -0.842056    3               +0.0010
iter: 123  07:00:11  -3.84  -3.67    -0.842030    3               +0.0008
iter: 124  07:00:12  -3.91  -3.76    -0.842071    3               +0.0004
iter: 125  07:00:13  -3.01  -3.53    -0.842093    3               +0.0014
iter: 126  07:00:15  -2.99  -3.49    -0.842074    3               +0.0006
iter: 127  07:00:16  -3.65  -3.54    -0.842225    3               +0.0003
iter: 128  07:00:18  -5.14  -3.22    -0.842257    2               +0.0002
iter: 129  07:00:19  -3.96  -3.18    -0.842140    3               +0.0002
iter: 130  07:00:20  -4.55  -3.34    -0.842093    3               +0.0004
iter: 131  07:00:22  -4.34  -3.46    -0.842053    3               +0.0005
iter: 132  07:00:23  -4.04  -3.69    -0.842033    3               +0.0007
iter: 133  07:00:24  -4.28  -3.82    -0.842042    3               +0.0005
iter: 134  07:00:26  -4.40  -3.85    -0.842067    3               +0.0004
iter: 135  07:00:27  -5.24  -3.57    -0.842057    2               +0.0005
iter: 136  07:00:28  -5.78  -3.67    -0.842051    2               +0.0007
iter: 137  07:00:30  -4.84  -3.72    -0.842042    2               +0.0003
iter: 138  07:00:31  -4.65  -3.90    -0.842056    2               +0.0005
iter: 139  07:00:33  -5.01  -3.70    -0.842047    2               +0.0001
iter: 140  07:00:34  -3.44  -3.80    -0.842191    3               -0.0001
iter: 141  07:00:35  -4.16  -3.29    -0.842313    3               -0.0001
iter: 142  07:00:37  -4.19  -3.16    -0.842205    3               -0.0002
iter: 143  07:00:38  -3.19  -3.25    -0.842034    3               +0.0005
iter: 144  07:00:39  -3.58  -3.91    -0.842079    3               +0.0011
iter: 145  07:00:41  -3.72  -3.61    -0.842033    3               +0.0008
iter: 146  07:00:42  -3.73  -3.81    -0.842064    3               +0.0004
iter: 147  07:00:44  -4.46  -3.60    -0.842106    3               +0.0003
iter: 148  07:00:45  -3.43  -3.44    -0.842032    3               +0.0008
iter: 149  07:00:46  -4.51  -3.78    -0.842035    3               +0.0007
iter: 150  07:00:48  -4.67  -3.84    -0.842049    3               +0.0005
iter: 151  07:00:49  -3.63  -3.72    -0.842045    3               +0.0008
iter: 152  07:00:50  -4.37  -3.79    -0.842034    3               +0.0006
iter: 153  07:00:52  -4.22  -3.90    -0.842052    3               +0.0008
iter: 154  07:00:53  -6.15  -3.78    -0.842055    2               +0.0008
iter: 155  07:00:55  -3.74  -3.77    -0.842033    3               +0.0009
iter: 156  07:00:56  -3.47  -3.77    -0.842148    3               +0.0001
iter: 157  07:00:57  -5.13  -3.34    -0.842177    2               +0.0001
iter: 158  07:00:59  -4.57  -3.29    -0.842130    3               +0.0002
iter: 159  07:01:00  -3.61  -3.37    -0.842039    3               +0.0004
iter: 160  07:01:01  -4.68  -3.89    -0.842033    2               +0.0007
iter: 161  07:01:03  -5.42  -3.83    -0.842034    2               +0.0007
iter: 162  07:01:04  -4.36  -3.85    -0.842038    3               +0.0006
iter: 163  07:01:06  -6.23  -3.93    -0.842039    2               +0.0006
iter: 164  07:01:07  -5.94  -3.88    -0.842042    2               +0.0006
iter: 165  07:01:08  -5.92  -3.85    -0.842046    2               +0.0005
iter: 166  07:01:10  -6.72  -3.77    -0.842044    2               +0.0006
iter: 167  07:01:11  -5.09  -3.79    -0.842055    2               +0.0005
iter: 168  07:01:12  -4.58  -3.64    -0.842040    3               +0.0004
iter: 169  07:01:14  -5.49  -3.89    -0.842044    2               +0.0004
iter: 170  07:01:15  -5.72  -3.81    -0.842048    2               +0.0004
iter: 171  07:01:17  -6.69  -3.75    -0.842047    2               +0.0006
iter: 172  07:01:18  -4.36  -3.73    -0.842081    3               +0.0002
iter: 173  07:01:19  -4.82  -3.49    -0.842111    2               +0.0001
iter: 174  07:01:21  -6.19  -3.40    -0.842110    2               +0.0003
iter: 175  07:01:22  -4.60  -3.40    -0.842075    3               +0.0004
iter: 176  07:01:23  -4.74  -3.51    -0.842106    2               +0.0001
iter: 177  07:01:25  -4.76  -3.42    -0.842077    3               +0.0004
iter: 178  07:01:26  -6.55  -3.53    -0.842074    2               +0.0004
iter: 179  07:01:28  -4.63  -3.54    -0.842110    2               +0.0003
iter: 180  07:01:29  -4.43  -3.43    -0.842169    3               -0.0001
iter: 181  07:01:30  -3.29  -3.30    -0.842035    3               +0.0005
iter: 182  07:01:32  -3.64  -4.02    -0.842095    3               +0.0003
iter: 183  07:01:33  -5.98  -3.47    -0.842092    2               +0.0005
iter: 184  07:01:34  -5.04  -3.46    -0.842072    2               +0.0005
iter: 185  07:01:36  -5.58  -3.54    -0.842064    2               +0.0004
iter: 186  07:01:37  -4.39  -3.61    -0.842039    3               +0.0006
iter: 187  07:01:39  -6.09  -3.89    -0.842039    2               +0.0007
iter: 188  07:01:40  -4.47  -3.87    -0.842035    3               +0.0005
iter: 189  07:01:41  -5.45  -4.00    -0.842035    2               +0.0005
iter: 190  07:01:43  -3.55  -3.98    -0.842107    3               +0.0001
iter: 191  07:01:44  -4.38  -3.44    -0.842068    3               +0.0002
iter: 192  07:01:45  -4.92  -3.60    -0.842090    2               +0.0001
iter: 193  07:01:47  -4.10  -3.49    -0.842045    3               +0.0003
iter: 194  07:01:48  -5.33  -3.82    -0.842051    2               +0.0004
iter: 195  07:01:50  -3.95  -3.73    -0.842118    3               +0.0004
iter: 196  07:01:51  -5.09  -3.42    -0.842100    2               +0.0003
iter: 197  07:01:52  -4.87  -3.47    -0.842131    2               +0.0002
iter: 198  07:01:54  -4.08  -3.38    -0.842064    3               +0.0005
iter: 199  07:01:55  -6.41  -3.61    -0.842063    1               +0.0005
iter: 200  07:01:56  -4.14  -3.62    -0.842124    3               +0.0003
iter: 201  07:01:58  -4.22  -3.39    -0.842069    3               +0.0005
iter: 202  07:01:59  -4.10  -3.59    -0.842137    3               +0.0003
iter: 203  07:02:01  -3.80  -3.37    -0.842051    3               +0.0006
iter: 204  07:02:02  -4.87  -3.72    -0.842067    2               +0.0006
iter: 205  07:02:03  -5.88  -3.60    -0.842062    2               +0.0005
iter: 206  07:02:05  -4.95  -3.64    -0.842047    2               +0.0006
iter: 207  07:02:06  -5.58  -3.79    -0.842042    2               +0.0006
iter: 208  07:02:07  -5.37  -3.86    -0.842048    2               +0.0006
iter: 209  07:02:09  -6.31  -3.79    -0.842050    2               +0.0006
iter: 210  07:02:10  -5.53  -3.75    -0.842057    2               +0.0007
iter: 211  07:02:12  -4.70  -3.68    -0.842042    2               +0.0006
iter: 212  07:02:13  -5.92  -3.89    -0.842044    2               +0.0006
iter: 213  07:02:14  -7.20  -3.85    -0.842043    1               +0.0006
iter: 214  07:02:16  -4.70  -3.86    -0.842034    3               +0.0007
iter: 215  07:02:17  -4.72  -3.83    -0.842042    3               +0.0007
iter: 216  07:02:18  -4.51  -3.83    -0.842033    3               +0.0007
iter: 217  07:02:20  -4.40  -3.85    -0.842045    3               +0.0005
iter: 218  07:02:21  -4.23  -3.83    -0.842084    3               +0.0004
iter: 219  07:02:23  -4.70  -3.53    -0.842059    3               +0.0006
iter: 220  07:02:24  -5.32  -3.67    -0.842069    3               +0.0008
iter: 221  07:02:25  -5.18  -3.57    -0.842087    2               +0.0007
iter: 222  07:02:27  -4.29  -3.49    -0.842049    3               +0.0007
iter: 223  07:02:28  -6.18  -3.74    -0.842046    2               +0.0007
iter: 224  07:02:29  -5.35  -3.77    -0.842039    2               +0.0008
iter: 225  07:02:31  -4.32  -3.80    -0.842067    3               +0.0006
iter: 226  07:02:32  -4.97  -3.59    -0.842052    3               +0.0007
iter: 227  07:02:34  -5.99  -3.73    -0.842048    2               +0.0006
iter: 228  07:02:35  -6.44  -3.77    -0.842046    2               +0.0006
iter: 229  07:02:36  -5.81  -3.82    -0.842050    2               +0.0006
iter: 230  07:02:38  -4.17  -3.76    -0.842100    3               +0.0004
iter: 231  07:02:39  -4.03  -3.48    -0.842046    3               +0.0006
iter: 232  07:02:40  -6.54  -3.82    -0.842046    2               +0.0006
iter: 233  07:02:42  -6.23  -3.84    -0.842048    2               +0.0006
iter: 234  07:02:43  -5.96  -3.80    -0.842044    2               +0.0007
iter: 235  07:02:45  -7.34  -3.86    -0.842044    2               +0.0007
iter: 236  07:02:46  -6.68  -3.86    -0.842043    2               +0.0007
iter: 237  07:02:47  -4.21  -3.87    -0.842031    3               +0.0009
iter: 238  07:02:49  -5.93  -3.75    -0.842031    2               +0.0009
iter: 239  07:02:50  -5.94  -3.72    -0.842033    2               +0.0009
iter: 240  07:02:51  -5.42  -3.71    -0.842032    2               +0.0009
iter: 241  07:02:53  -5.05  -3.74    -0.842033    2               +0.0008
iter: 242  07:02:54  -5.05  -3.80    -0.842030    2               +0.0010
iter: 243  07:02:56  -4.54  -3.71    -0.842035    3               +0.0008
iter: 244  07:02:57  -5.59  -3.81    -0.842033    2               +0.0008
iter: 245  07:02:58  -4.77  -3.81    -0.842042    3               +0.0008
iter: 246  07:03:00  -4.41  -3.81    -0.842032    3               +0.0008
iter: 247  07:03:01  -5.40  -3.81    -0.842033    2               +0.0008
iter: 248  07:03:02  -3.81  -3.79    -0.842084    3               +0.0004
iter: 249  07:03:04  -5.48  -3.53    -0.842077    2               +0.0007
iter: 250  07:03:05  -4.58  -3.55    -0.842049    3               +0.0009
iter: 251  07:03:07  -6.31  -3.72    -0.842046    2               +0.0009
iter: 252  07:03:08  -4.07  -3.74    -0.842102    3               +0.0006
iter: 253  07:03:09  -3.52  -3.44    -0.842027    3               +0.0011
iter: 254  07:03:11  -3.88  -3.63    -0.842061    3               +0.0007
iter: 255  07:03:12  -5.65  -3.63    -0.842055    2               +0.0006
iter: 256  07:03:13  -6.26  -3.69    -0.842059    2               +0.0006
iter: 257  07:03:15  -5.35  -3.66    -0.842049    2               +0.0007
iter: 258  07:03:16  -5.00  -3.73    -0.842037    2               +0.0009
iter: 259  07:03:18  -5.58  -3.76    -0.842042    2               +0.0008
iter: 260  07:03:19  -6.71  -3.80    -0.842044    2               +0.0006
iter: 261  07:03:20  -6.60  -3.85    -0.842046    2               +0.0006
iter: 262  07:03:22  -5.50  -3.83    -0.842039    2               +0.0007
iter: 263  07:03:23  -5.10  -3.82    -0.842048    2               +0.0007
iter: 264  07:03:24  -5.83  -3.76    -0.842043    2               +0.0008
iter: 265  07:03:26  -4.97  -3.76    -0.842058    2               +0.0006
iter: 266  07:03:27  -6.26  -3.67    -0.842055    2               +0.0007
iter: 267  07:03:29  -6.04  -3.69    -0.842059    2               +0.0007
iter: 268  07:03:30  -4.89  -3.64    -0.842045    2               +0.0007
iter: 269  07:03:31  -5.76  -3.77    -0.842050    2               +0.0006
iter: 270  07:03:33  -5.23  -3.73    -0.842043    2               +0.0004
iter: 271  07:03:34  -6.79  -3.80    -0.842043    2               +0.0003
iter: 272  07:03:35  -5.69  -3.88    -0.842039    2               +0.0004
iter: 273  07:03:37  -4.95  -3.93    -0.842047    2               +0.0006
iter: 274  07:03:38  -4.34  -3.79    -0.842083    3               +0.0004
iter: 275  07:03:40  -5.87  -3.54    -0.842078    1               +0.0004
iter: 276  07:03:41  -4.78  -3.55    -0.842056    2               +0.0005
iter: 277  07:03:42  -5.51  -3.68    -0.842048    2               +0.0006
iter: 278  07:03:44  -5.48  -3.77    -0.842056    2               +0.0004
iter: 279  07:03:45  -5.08  -3.68    -0.842071    2               +0.0003
iter: 280  07:03:46  -6.65  -3.59    -0.842073    2               +0.0004
iter: 281  07:03:48  -5.45  -3.57    -0.842085    2               +0.0004
iter: 282  07:03:49  -5.53  -3.51    -0.842076    2               +0.0003
iter: 283  07:03:51  -5.02  -3.56    -0.842096    3               +0.0004
iter: 284  07:03:52  -4.87  -3.45    -0.842071    2               +0.0007
iter: 285  07:03:53  -6.51  -3.56    -0.842067    2               +0.0007
iter: 286  07:03:55  -4.78  -3.57    -0.842047    2               +0.0007
iter: 287  07:03:56  -5.35  -3.71    -0.842055    2               +0.0007
iter: 288  07:03:57  -6.07  -3.66    -0.842059    2               +0.0008
iter: 289  07:03:59  -5.65  -3.63    -0.842053    2               +0.0007
iter: 290  07:04:00  -5.18  -3.68    -0.842045    3               +0.0006
iter: 291  07:04:02  -4.50  -3.84    -0.842036    3               +0.0004
iter: 292  07:04:03  -4.63  -4.15    -0.842039    3               +0.0003
iter: 293  07:04:04  -5.89  -4.12    -0.842038    2               +0.0003
iter: 294  07:04:06  -4.36  -4.15    -0.842039    3               +0.0001
iter: 295  07:04:07  -5.29  -4.20    -0.842043    2               -0.0002
iter: 296  07:04:08  -4.09  -4.05    -0.842039    3               +0.0002
iter: 297  07:04:10  -5.33  -4.16    -0.842044    2               +0.0001
iter: 298  07:04:11  -5.60  -3.90    -0.842041    2               +0.0001
iter: 299  07:04:13  -5.38  -4.04    -0.842038    2               -0.0000
iter: 300  07:04:14  -5.42  -4.19    -0.842040    2               -0.0002
iter: 301  07:04:15  -4.88  -3.97    -0.842036    2               -0.0002
iter: 302  07:04:17  -4.88  -4.44    -0.842040    2               -0.0001
iter: 303  07:04:18  -6.03  -3.98    -0.842039    2               -0.0001
iter: 304  07:04:19  -5.66  -4.07    -0.842042    2               +0.0000
iter: 305  07:04:21  -6.96  -3.95    -0.842041    2               -0.0000
iter: 306  07:04:22  -4.42  -3.95    -0.842061    3               -0.0004
iter: 307  07:04:24  -3.67  -3.60    -0.842039    3               +0.0003
iter: 308  07:04:25  -5.36  -4.06    -0.842037    2               +0.0001
iter: 309  07:04:26  -5.06  -4.29    -0.842042    2               +0.0001
iter: 310  07:04:28  -4.94  -3.99    -0.842037    2               +0.0001
iter: 311  07:04:29  -4.68  -4.35    -0.842046    3               +0.0002
iter: 312  07:04:30  -3.61  -3.88    -0.842054    3               -0.0003
iter: 313  07:04:32  -3.90  -3.76    -0.842037    3               +0.0000
iter: 314  07:04:33  -4.88  -4.41    -0.842037    2               +0.0000
iter: 315  07:04:35  -6.47  -4.49    -0.842038    2               +0.0000
iter: 316  07:04:36  -6.48  -4.35    -0.842037    1               +0.0000
iter: 317  07:04:37  -6.92  -4.42    -0.842037    2               -0.0000
iter: 318  07:04:39  -7.90  -4.25    -0.842037    2               +0.0000

Converged after 318 iterations.

Dipole moment: (0.000000, 0.000000, -0.000000) |e|*Ang

Total magnetic moment: 0.000009
Local magnetic moments:
   0 Hg 0.000018

Energy contributions relative to reference atoms: (reference = -533155.778727)

Kinetic:        +14.829762
Potential:      -11.484890
External:        +0.000000
XC:              -2.176157
Entropy (-ST):   -0.000541
Local:           -2.010483
--------------------------
Free energy:     -0.842307
Extrapolated:    -0.842037

Spin contamination: 0.000063 electrons
Fermi level: 4.87819

Warning: Showing only first 2 kpts
                      Up                     Down
 Kpt  Band  Eigenvalues  Occupancy  Eigenvalues  Occupancy
  0     7     -1.40305    0.01172     -1.40308    0.01172
  0     8     -1.35190    0.01172     -1.35193    0.01172
  0     9     16.74966    0.00000     16.74965    0.00000
  0    10     17.35165    0.00000     17.35165    0.00000

  1     7     -1.39030    0.01562     -1.39033    0.01562
  1     8     -1.39016    0.01562     -1.39019    0.01562
  1     9     14.50433    0.00000     14.50433    0.00000
  1    10     15.86119    0.00000     15.86123    0.00000


Input parameters:
  convergence: {bands: all}
  eigensolver: {name: cg,
                niter: 5}
  fixdensity: True
  kpts: {npoints: 50,
         path: GHNGP}
  nbands: -4
  symmetry: off

Initialize ...

Hg-setup:
  name: Mercury
  id: 0b51cb891d82143d22b15bac899cb056
  Z: 80
  valence: 18
  core: 62
  charge: 0.0
  file: /usr/share/gpaw-setups/Hg.PBE.gz
  cutoffs: 1.29(comp), 2.17(filt), 2.06(core), lmax=2
  valence states:
                energy  radius
    6s(2.00)    -6.783   1.307
    5p(6.00)   -66.572   1.291
    6p(0.00)    -1.056   1.291
    5d(10.00)    -9.891   1.302
    *s          20.429   1.307
    *d          17.320   1.302

  Using partial waves for Hg as LCAO basis

Reference energy: -533155.778727

Spin-polarized calculation.
Magnetic moment:  0.000000

Occupation numbers:
  Fixed Fermi level
  Fermi-Dirac: width=0.0200 eV

Convergence criteria:
  Maximum total energy change: 0.0005 eV / electron
  Maximum integral of absolute density change: 0.0001 electrons
  Maximum integral of absolute eigenstate change: 4e-08 eV^2
  Maximum number of iterations: 1500

Symmetries present (total): 1

  ( 1  0  0)
  ( 0  1  0)
  ( 0  0  1)

50 k-points
50 k-points in the irreducible part of the Brillouin zone
       k-points in crystal coordinates                weights
   0:     0.00000000    0.00000000    0.00000000          1/50
   1:     0.03571429   -0.03571429    0.03571429          1/50
   2:     0.07142857   -0.07142857    0.07142857          1/50
   3:     0.10714286   -0.10714286    0.10714286          1/50
   4:     0.14285714   -0.14285714    0.14285714          1/50
   5:     0.17857143   -0.17857143    0.17857143          1/50
   6:     0.21428571   -0.21428571    0.21428571          1/50
   7:     0.25000000   -0.25000000    0.25000000          1/50
   8:     0.28571429   -0.28571429    0.28571429          1/50
   9:     0.32142857   -0.32142857    0.32142857          1/50
          ...
  49:     0.25000000    0.25000000    0.25000000          1/50

Wave functions: Plane wave expansion
  Cutoff energy: 400.000 eV
  Number of coefficients (min, max): 490, 555
  Using FFTW library
  Eigensolver: None  MatrixOperator buffer_size: default value or 
                              see value of nblock in input file
Diagonalizer layout: Serial LAPACKOrthonormalizer layout: Serial LAPACK 

CG(niter=5, rtol=3.0e-01) 

No density mixing

Memory estimate:
  Process memory now: 997.66 MiB
  Calculator: 17.72 MiB
    Density: 2.06 MiB
      Arrays: 0.73 MiB
      Localized functions: 0.41 MiB
      Mixer: 0.92 MiB
    Hamiltonian: 0.55 MiB
      Arrays: 0.54 MiB
      XC: 0.00 MiB
      Poisson: 0.00 MiB
      vbar: 0.01 MiB
    Wavefunctions: 15.11 MiB
      Arrays psit_nG: 11.01 MiB
      Eigensolver: 0.15 MiB
      Projections: 0.36 MiB
      Projectors: 3.06 MiB
      Overlap op: 0.11 MiB
      PW-descriptor: 0.41 MiB

Total number of cores used: 1

Number of atoms: 1
Number of atomic orbitals: 12
Number of bands in calculation: 13
Bands to converge: all
Number of valence electrons: 18

... initialized

Initializing position-dependent things.

Creating initial wave functions:
  12 bands from LCAO basis set
  1 band from random numbers

                
                
                
       Hg       
                
                
                
                

Positions:
   0 Hg     0.000000    0.000000    0.000000

Unit cell:
           periodic     x           y           z      points  spacing
  1. axis:    yes   -1.947000    1.947000    1.947000    14     0.1967
  2. axis:    yes    1.947000   -1.947000    1.947000    14     0.1967
  3. axis:    yes    1.947000    1.947000   -1.947000    14     0.1967

  Lengths:   3.372303   3.372303   3.372303
  Angles:  109.471221 109.471221 109.471221

Effective grid spacing dv^(1/3) = 0.2208

                     log10-error:    total        iterations:
           time      wfs    density  energy       fermi  poisson  magmom
iter:   1  07:04:48  +3.08           -2.304586    28              -0.0000
iter:   2  07:04:55  +2.02           -2.352512    28              +0.0000
iter:   3  07:05:01  +1.13           -2.358165    25              +0.0000
iter:   4  07:05:09  +0.21           -2.359019    27              +0.0000
iter:   5  07:05:17  -0.57           -2.359168    28              -0.0000
iter:   6  07:05:25  -0.92           -2.359180    27              -0.0000
iter:   7  07:05:33  -1.36           -2.359182    27              -0.0000
iter:   8  07:05:41  -1.68           -2.359182    27              -0.0000
iter:   9  07:05:46  -2.58           -2.359182    27              -0.0000
iter:  10  07:05:50  -2.77           -2.359182    27              -0.0000
iter:  11  07:05:53  -3.17           -2.359182    27              -0.0000
iter:  12  07:05:54  -3.59           -2.359182    27              -0.0000
iter:  13  07:05:56  -3.91           -2.359182    27              -0.0000
iter:  14  07:05:58  -4.28           -2.359182    27              -0.0000
iter:  15  07:05:59  -4.69           -2.359182    27              -0.0000
iter:  16  07:06:00  -4.97           -2.359182    27              -0.0000
iter:  17  07:06:01  -5.13           -2.359182    27              -0.0000
iter:  18  07:06:02  -5.32           -2.359182    27              -0.0000
iter:  19  07:06:04  -5.27           -2.359182    27              -0.0000
iter:  20  07:06:05  -5.60           -2.359182    27              -0.0000
iter:  21  07:06:06  -5.89           -2.359182    27              -0.0000
iter:  22  07:06:07  -5.51           -2.359182    27              -0.0000
iter:  23  07:06:08  -4.76           -2.359182    27              -0.0000
iter:  24  07:06:09  -5.87           -2.359182    27              -0.0000
iter:  25  07:06:10  -6.17           -2.359182    27              -0.0000
iter:  26  07:06:11  -5.64           -2.359182    27              -0.0000
iter:  27  07:06:12  -5.72           -2.359182    27              -0.0000
iter:  28  07:06:13  -5.67           -2.359182    27              -0.0000
iter:  29  07:06:14  -6.37           -2.359182    27              -0.0000
iter:  30  07:06:15  -6.20           -2.359182    27              -0.0000
iter:  31  07:06:16  -5.92           -2.359182    27              -0.0000
iter:  32  07:06:17  -6.29           -2.359182    27              -0.0000
iter:  33  07:06:18  -6.44           -2.359182    27              -0.0000
iter:  34  07:06:19  -6.32           -2.359182    27              -0.0000
iter:  35  07:06:20  -6.46           -2.359182    27              -0.0000
iter:  36  07:06:21  -6.34           -2.359182    27              -0.0000
iter:  37  07:06:22  -6.47           -2.359182    27              -0.0000
iter:  38  07:06:23  -6.36           -2.359182    27              -0.0000
iter:  39  07:06:24  -6.48           -2.359182    27              -0.0000
iter:  40  07:06:25  -6.37           -2.359182    27              -0.0000
iter:  41  07:06:26  -6.48           -2.359182    27              -0.0000
iter:  42  07:06:27  -6.38           -2.359182    27              -0.0000
iter:  43  07:06:28  -6.49           -2.359182    27              -0.0000
iter:  44  07:06:29  -6.39           -2.359182    27              -0.0000
iter:  45  07:06:30  -6.49           -2.359182    27              -0.0000
iter:  46  07:06:31  -6.39           -2.359182    27              -0.0000
iter:  47  07:06:32  -6.49           -2.359182    27              -0.0000
iter:  48  07:06:33  -6.38           -2.359182    27              -0.0000
iter:  49  07:06:34  -6.50           -2.359182    27              -0.0000
iter:  50  07:06:35  -6.41           -2.359182    27              -0.0000
iter:  51  07:06:36  -6.50           -2.359182    27              -0.0000
iter:  52  07:06:37  -6.40           -2.359182    27              -0.0000
iter:  53  07:06:38  -6.50           -2.359182    27              -0.0000
iter:  54  07:06:39  -6.42           -2.359182    27              -0.0000
iter:  55  07:06:40  -6.51           -2.359182    27              -0.0000
iter:  56  07:06:41  -6.42           -2.359182    27              -0.0000
iter:  57  07:06:42  -6.51           -2.359182    27              -0.0000
iter:  58  07:06:43  -6.43           -2.359182    27              -0.0000
iter:  59  07:06:44  -6.51           -2.359182    27              -0.0000
iter:  60  07:06:45  -6.43           -2.359182    27              -0.0000
iter:  61  07:06:46  -6.52           -2.359182    27              -0.0000
iter:  62  07:06:46  -6.44           -2.359182    27              -0.0000
iter:  63  07:06:47  -6.52           -2.359182    27              -0.0000
iter:  64  07:06:48  -6.45           -2.359182    27              -0.0000
iter:  65  07:06:49  -6.52           -2.359182    27              -0.0000
iter:  66  07:06:50  -6.46           -2.359182    27              -0.0000
iter:  67  07:06:51  -6.53           -2.359182    27              -0.0000
iter:  68  07:06:52  -6.46           -2.359182    27              -0.0000
iter:  69  07:06:53  -6.53           -2.359182    27              -0.0000
iter:  70  07:06:54  -6.47           -2.359182    27              -0.0000
iter:  71  07:06:55  -6.53           -2.359182    27              -0.0000
iter:  72  07:06:56  -6.47           -2.359182    27              -0.0000
iter:  73  07:06:57  -6.54           -2.359182    27              -0.0000
iter:  74  07:06:58  -6.48           -2.359182    27              -0.0000
iter:  75  07:06:59  -6.54           -2.359182    27              -0.0000
iter:  76  07:07:00  -6.49           -2.359182    27              -0.0000
iter:  77  07:07:01  -6.54           -2.359182    27              -0.0000
iter:  78  07:07:02  -6.49           -2.359182    27              -0.0000
iter:  79  07:07:03  -6.55           -2.359182    27              -0.0000
iter:  80  07:07:04  -6.50           -2.359182    27              -0.0000
iter:  81  07:07:05  -6.55           -2.359182    27              -0.0000
iter:  82  07:07:06  -6.50           -2.359182    27              -0.0000
iter:  83  07:07:07  -6.56           -2.359182    27              -0.0000
iter:  84  07:07:08  -6.51           -2.359182    27              -0.0000
iter:  85  07:07:09  -6.56           -2.359182    27              -0.0000
iter:  86  07:07:10  -6.52           -2.359182    27              -0.0000
iter:  87  07:07:11  -6.57           -2.359182    27              -0.0000
iter:  88  07:07:12  -6.52           -2.359182    27              -0.0000
iter:  89  07:07:13  -6.57           -2.359182    27              -0.0000
iter:  90  07:07:14  -6.53           -2.359182    27              -0.0000
iter:  91  07:07:15  -6.57           -2.359182    27              -0.0000
iter:  92  07:07:15  -6.54           -2.359182    27              -0.0000
iter:  93  07:07:16  -6.58           -2.359182    27              -0.0000
iter:  94  07:07:17  -6.54           -2.359182    27              -0.0000
iter:  95  07:07:18  -6.58           -2.359182    27              -0.0000
iter:  96  07:07:19  -6.55           -2.359182    27              -0.0000
iter:  97  07:07:20  -6.59           -2.359182    27              -0.0000
iter:  98  07:07:21  -6.56           -2.359182    27              -0.0000
iter:  99  07:07:22  -6.59           -2.359182    27              -0.0000
iter: 100  07:07:23  -6.56           -2.359182    27              -0.0000
iter: 101  07:07:24  -6.60           -2.359182    27              -0.0000
iter: 102  07:07:25  -6.57           -2.359182    27              -0.0000
iter: 103  07:07:26  -6.60           -2.359182    27              -0.0000
iter: 104  07:07:27  -6.58           -2.359182    27              -0.0000
iter: 105  07:07:28  -6.60           -2.359182    27              -0.0000
iter: 106  07:07:29  -6.58           -2.359182    27              -0.0000
iter: 107  07:07:30  -6.61           -2.359182    27              -0.0000
iter: 108  07:07:31  -6.59           -2.359182    27              -0.0000
iter: 109  07:07:32  -6.61           -2.359182    27              -0.0000
iter: 110  07:07:33  -6.60           -2.359182    27              -0.0000
iter: 111  07:07:34  -6.62           -2.359182    27              -0.0000
iter: 112  07:07:35  -6.61           -2.359182    27              -0.0000
iter: 113  07:07:36  -6.62           -2.359182    27              -0.0000
iter: 114  07:07:37  -6.61           -2.359182    27              -0.0000
iter: 115  07:07:38  -6.63           -2.359182    27              -0.0000
iter: 116  07:07:39  -6.62           -2.359182    27              -0.0000
iter: 117  07:07:40  -6.63           -2.359182    27              -0.0000
iter: 118  07:07:41  -6.63           -2.359182    27              -0.0000
iter: 119  07:07:42  -6.64           -2.359182    27              -0.0000
iter: 120  07:07:43  -6.63           -2.359182    27              -0.0000
iter: 121  07:07:43  -6.64           -2.359182    27              -0.0000
iter: 122  07:07:44  -6.64           -2.359182    27              -0.0000
iter: 123  07:07:45  -6.65           -2.359182    27              -0.0000
iter: 124  07:07:46  -6.65           -2.359182    27              -0.0000
iter: 125  07:07:47  -6.65           -2.359182    27              -0.0000
iter: 126  07:07:48  -6.66           -2.359182    27              -0.0000
iter: 127  07:07:49  -6.66           -2.359182    27              -0.0000
iter: 128  07:07:50  -6.66           -2.359182    27              -0.0000
iter: 129  07:07:51  -6.66           -2.359182    27              -0.0000
iter: 130  07:07:52  -6.67           -2.359182    27              -0.0000
iter: 131  07:07:53  -6.66           -2.359182    27              -0.0000
iter: 132  07:07:54  -6.68           -2.359182    27              -0.0000
iter: 133  07:07:55  -6.67           -2.359182    27              -0.0000
iter: 134  07:07:56  -6.69           -2.359182    27              -0.0000
iter: 135  07:07:57  -6.67           -2.359182    27              -0.0000
iter: 136  07:07:58  -6.69           -2.359182    27              -0.0000
iter: 137  07:07:59  -6.68           -2.359182    27              -0.0000
iter: 138  07:08:00  -6.70           -2.359182    27              -0.0000
iter: 139  07:08:01  -6.68           -2.359182    27              -0.0000
iter: 140  07:08:02  -6.71           -2.359182    27              -0.0000
iter: 141  07:08:03  -6.69           -2.359182    27              -0.0000
iter: 142  07:08:04  -6.72           -2.359182    27              -0.0000
iter: 143  07:08:05  -6.69           -2.359182    27              -0.0000
iter: 144  07:08:06  -6.72           -2.359182    27              -0.0000
iter: 145  07:08:07  -6.70           -2.359182    27              -0.0000
iter: 146  07:08:08  -6.73           -2.359182    27              -0.0000
iter: 147  07:08:09  -6.70           -2.359182    27              -0.0000
iter: 148  07:08:09  -6.74           -2.359182    27              -0.0000
iter: 149  07:08:10  -6.71           -2.359182    27              -0.0000
iter: 150  07:08:11  -6.75           -2.359182    27              -0.0000
iter: 151  07:08:12  -6.71           -2.359182    27              -0.0000
iter: 152  07:08:13  -6.75           -2.359182    27              -0.0000
iter: 153  07:08:14  -6.72           -2.359182    27              -0.0000
iter: 154  07:08:15  -6.76           -2.359182    27              -0.0000
iter: 155  07:08:16  -6.72           -2.359182    27              -0.0000
iter: 156  07:08:17  -6.77           -2.359182    27              -0.0000
iter: 157  07:08:18  -6.73           -2.359182    27              -0.0000
iter: 158  07:08:19  -6.78           -2.359182    27              -0.0000
iter: 159  07:08:20  -6.73           -2.359182    27              -0.0000
iter: 160  07:08:21  -6.78           -2.359182    27              -0.0000
iter: 161  07:08:22  -6.55           -2.359182    27              -0.0000
iter: 162  07:08:23  -6.72           -2.359182    27              -0.0000
iter: 163  07:08:24  -6.69           -2.359182    27              -0.0000
iter: 164  07:08:25  -5.87           -2.359182    27              -0.0000
iter: 165  07:08:26  -6.76           -2.359182    27              -0.0000
iter: 166  07:08:27  -6.81           -2.359182    27              -0.0000
iter: 167  07:08:28  -6.55           -2.359182    27              -0.0000
iter: 168  07:08:29  -6.66           -2.359182    27              -0.0000
iter: 169  07:08:30  -6.78           -2.359182    27              -0.0000
iter: 170  07:08:31  -6.70           -2.359182    27              -0.0000
iter: 171  07:08:32  -6.66           -2.359182    27              -0.0000
iter: 172  07:08:33  -6.84           -2.359182    27              -0.0000
iter: 173  07:08:34  -6.67           -2.359182    27              -0.0000
iter: 174  07:08:35  -6.87           -2.359182    27              -0.0000
iter: 175  07:08:35  -6.67           -2.359182    27              -0.0000
iter: 176  07:08:36  -6.89           -2.359182    27              -0.0000
iter: 177  07:08:37  -6.70           -2.359182    27              -0.0000
iter: 178  07:08:38  -6.90           -2.359182    27              -0.0000
iter: 179  07:08:39  -6.71           -2.359182    27              -0.0000
iter: 180  07:08:40  -6.91           -2.359182    27              -0.0000
iter: 181  07:08:41  -6.72           -2.359182    27              -0.0000
iter: 182  07:08:42  -6.92           -2.359182    27              -0.0000
iter: 183  07:08:43  -6.73           -2.359182    27              -0.0000
iter: 184  07:08:44  -6.93           -2.359182    27              -0.0000
iter: 185  07:08:45  -6.74           -2.359182    27              -0.0000
iter: 186  07:08:46  -6.94           -2.359182    27              -0.0000
iter: 187  07:08:47  -6.75           -2.359182    27              -0.0000
iter: 188  07:08:48  -6.94           -2.359182    27              -0.0000
iter: 189  07:08:49  -6.76           -2.359182    27              -0.0000
iter: 190  07:08:50  -6.87           -2.359182    27              -0.0000
iter: 191  07:08:51  -6.71           -2.359182    27              -0.0000
iter: 192  07:08:52  -6.81           -2.359182    27              -0.0000
iter: 193  07:08:53  -6.70           -2.359182    27              -0.0000
iter: 194  07:08:54  -6.83           -2.359182    27              -0.0000
iter: 195  07:08:55  -6.56           -2.359182    27              -0.0000
iter: 196  07:08:56  -6.64           -2.359182    27              -0.0000
iter: 197  07:08:57  -6.80           -2.359182    27              -0.0000
iter: 198  07:08:58  -6.87           -2.359182    27              -0.0000
iter: 199  07:08:59  -6.73           -2.359182    27              -0.0000
iter: 200  07:09:00  -6.76           -2.359182    27              -0.0000
iter: 201  07:09:00  -6.77           -2.359182    27              -0.0000
iter: 202  07:09:01  -6.87           -2.359182    27              -0.0000
iter: 203  07:09:02  -6.09           -2.359182    27              -0.0000
iter: 204  07:09:03  -6.73           -2.359182    27              -0.0000
iter: 205  07:09:04  -6.76           -2.359182    27              -0.0000
iter: 206  07:09:05  -6.21           -2.359182    27              -0.0000
iter: 207  07:09:06  -6.54           -2.359182    27              -0.0000
iter: 208  07:09:07  -6.87           -2.359182    27              -0.0000
iter: 209  07:09:08  -5.87           -2.359182    27              -0.0000
iter: 210  07:09:09  -6.79           -2.359182    27              -0.0000
iter: 211  07:09:10  -6.89           -2.359182    27              -0.0000
iter: 212  07:09:11  -6.91           -2.359182    27              -0.0000
iter: 213  07:09:12  -6.88           -2.359182    27              -0.0000
iter: 214  07:09:13  -7.02           -2.359182    27              -0.0000
iter: 215  07:09:14  -6.89           -2.359182    27              -0.0000
iter: 216  07:09:15  -7.02           -2.359182    27              -0.0000
iter: 217  07:09:16  -6.89           -2.359182    27              -0.0000
iter: 218  07:09:17  -7.03           -2.359182    27              -0.0000
iter: 219  07:09:18  -6.90           -2.359182    27              -0.0000
iter: 220  07:09:19  -7.04           -2.359182    27              -0.0000
iter: 221  07:09:20  -6.91           -2.359182    27              -0.0000
iter: 222  07:09:21  -7.06           -2.359182    27              -0.0000
iter: 223  07:09:22  -6.92           -2.359182    27              -0.0000
iter: 224  07:09:23  -7.00           -2.359182    27              -0.0000
iter: 225  07:09:24  -6.91           -2.359182    27              -0.0000
iter: 226  07:09:24  -7.07           -2.359182    27              -0.0000
iter: 227  07:09:25  -6.79           -2.359182    27              -0.0000
iter: 228  07:09:26  -7.03           -2.359182    27              -0.0000
iter: 229  07:09:27  -6.93           -2.359182    27              -0.0000
iter: 230  07:09:28  -6.43           -2.359182    27              -0.0000
iter: 231  07:09:29  -6.80           -2.359182    27              -0.0000
iter: 232  07:09:30  -7.04           -2.359182    27              -0.0000
iter: 233  07:09:31  -6.29           -2.359182    27              -0.0000
iter: 234  07:09:32  -6.79           -2.359182    27              -0.0000
iter: 235  07:09:33  -6.96           -2.359182    27              -0.0000
iter: 236  07:09:34  -6.71           -2.359182    27              -0.0000
iter: 237  07:09:35  -6.76           -2.359182    27              -0.0000
iter: 238  07:09:36  -7.09           -2.359182    27              -0.0000
iter: 239  07:09:37  -6.94           -2.359182    27              -0.0000
iter: 240  07:09:38  -6.52           -2.359182    27              -0.0000
iter: 241  07:09:39  -6.97           -2.359182    27              -0.0000
iter: 242  07:09:40  -7.08           -2.359182    27              -0.0000
iter: 243  07:09:41  -6.80           -2.359182    27              -0.0000
iter: 244  07:09:42  -7.09           -2.359182    27              -0.0000
iter: 245  07:09:43  -7.01           -2.359182    27              -0.0000
iter: 246  07:09:44  -6.54           -2.359182    27              -0.0000
iter: 247  07:09:45  -6.58           -2.359182    27              -0.0000
iter: 248  07:09:46  -7.18           -2.359182    27              -0.0000
iter: 249  07:09:47  -7.03           -2.359182    27              -0.0000
iter: 250  07:09:48  -7.17           -2.359182    27              -0.0000
iter: 251  07:09:48  -7.02           -2.359182    27              -0.0000
iter: 252  07:09:49  -7.18           -2.359182    27              -0.0000
iter: 253  07:09:50  -7.04           -2.359182    27              -0.0000
iter: 254  07:09:51  -7.16           -2.359182    27              -0.0000
iter: 255  07:09:52  -7.04           -2.359182    27              -0.0000
iter: 256  07:09:53  -7.21           -2.359182    27              -0.0000
iter: 257  07:09:54  -7.05           -2.359182    27              -0.0000
iter: 258  07:09:55  -7.22           -2.359182    27              -0.0000
iter: 259  07:09:56  -7.06           -2.359182    27              -0.0000
iter: 260  07:09:57  -7.22           -2.359182    27              -0.0000
iter: 261  07:09:58  -7.06           -2.359182    27              -0.0000
iter: 262  07:09:59  -7.23           -2.359182    27              -0.0000
iter: 263  07:10:00  -7.07           -2.359182    27              -0.0000
iter: 264  07:10:01  -7.24           -2.359182    27              -0.0000
iter: 265  07:10:02  -7.08           -2.359182    27              -0.0000
iter: 266  07:10:03  -7.25           -2.359182    27              -0.0000
iter: 267  07:10:04  -7.09           -2.359182    27              -0.0000
iter: 268  07:10:05  -7.25           -2.359182    27              -0.0000
iter: 269  07:10:06  -7.09           -2.359182    27              -0.0000
iter: 270  07:10:07  -7.26           -2.359182    27              -0.0000
iter: 271  07:10:08  -7.10           -2.359182    27              -0.0000
iter: 272  07:10:09  -7.27           -2.359182    27              -0.0000
iter: 273  07:10:10  -7.11           -2.359182    27              -0.0000
iter: 274  07:10:11  -7.28           -2.359182    27              -0.0000
iter: 275  07:10:12  -7.12           -2.359182    27              -0.0000
iter: 276  07:10:13  -7.29           -2.359182    27              -0.0000
iter: 277  07:10:14  -7.12           -2.359182    27              -0.0000
iter: 278  07:10:15  -7.29           -2.359182    27              -0.0000
iter: 279  07:10:16  -7.13           -2.359182    27              -0.0000
iter: 280  07:10:17  -7.30           -2.359182    27              -0.0000
iter: 281  07:10:18  -7.14           -2.359182    27              -0.0000
iter: 282  07:10:19  -7.31           -2.359182    27              -0.0000
iter: 283  07:10:20  -7.15           -2.359182    27              -0.0000
iter: 284  07:10:21  -7.32           -2.359182    27              -0.0000
iter: 285  07:10:22  -7.15           -2.359182    27              -0.0000
iter: 286  07:10:23  -7.33           -2.359182    27              -0.0000
iter: 287  07:10:24  -7.16           -2.359182    27              -0.0000
iter: 288  07:10:25  -7.33           -2.359182    27              -0.0000
iter: 289  07:10:26  -7.17           -2.359182    27              -0.0000
iter: 290  07:10:27  -7.34           -2.359182    27              -0.0000
iter: 291  07:10:28  -7.18           -2.359182    27              -0.0000
iter: 292  07:10:28  -7.35           -2.359182    27              -0.0000
iter: 293  07:10:29  -7.19           -2.359182    27              -0.0000
iter: 294  07:10:30  -7.36           -2.359182    27              -0.0000
iter: 295  07:10:31  -7.19           -2.359182    27              -0.0000
iter: 296  07:10:32  -7.37           -2.359182    27              -0.0000
iter: 297  07:10:33  -7.20           -2.359182    27              -0.0000
iter: 298  07:10:34  -7.37           -2.359182    27              -0.0000
iter: 299  07:10:35  -7.21           -2.359182    27              -0.0000
iter: 300  07:10:36  -7.38           -2.359182    27              -0.0000
iter: 301  07:10:37  -7.22           -2.359182    27              -0.0000
iter: 302  07:10:38  -7.39           -2.359182    27              -0.0000
iter: 303  07:10:39  -7.23           -2.359182    27              -0.0000
iter: 304  07:10:40  -7.40           -2.359182    27              -0.0000

Converged after 304 iterations.

Dipole moment: (0.000000, 0.000000, -0.000000) |e|*Ang

Total magnetic moment: -0.000000
Local magnetic moments:
   0 Hg 0.000018

Energy contributions relative to reference atoms: (reference = -533155.778727)

Kinetic:        +13.318415
Potential:      -11.488274
External:        +0.000000
XC:              -2.179675
Entropy (-ST):   -0.000001
Local:           -2.009648
--------------------------
Free energy:     -2.359183
Extrapolated:    -2.359182

Spin contamination: 0.000069 electrons
Fixed Fermi level: 4.87819

Warning: Showing only first 2 kpts
                      Up                     Down
 Kpt  Band  Eigenvalues  Occupancy  Eigenvalues  Occupancy
  0     7     -1.36697    0.02000     -1.36699    0.02000
  0     8     -1.36697    0.02000     -1.36699    0.02000
  0     9     18.13557    0.00000     18.13555    0.00000
  0    10     18.13557    0.00000     18.13555    0.00000

  1     7     -1.37893    0.02000     -1.37896    0.02000
  1     8     -1.36155    0.02000     -1.36157    0.02000
  1     9     17.58819    0.00000     17.58818    0.00000
  1    10     17.87420    0.00000     17.87419    0.00000


Timing:                              incl.     excl.
-----------------------------------------------------------
Hamiltonian:                         0.762     0.001   0.0% |
 Atomic:                             0.562     0.002   0.0% |
  XC Correction:                     0.559     0.559   0.1% |
 Calculate atomic Hamiltonians:      0.009     0.009   0.0% |
 Communicate:                        0.000     0.000   0.0% |
 Initialize Hamiltonian:             0.000     0.000   0.0% |
 Poisson:                            0.000     0.000   0.0% |
 XC 3D grid:                         0.190     0.190   0.0% |
LCAO initialization:                 2.776     0.178   0.0% |
 LCAO eigensolver:                   1.424     0.014   0.0% |
  Calculate projections:             0.005     0.005   0.0% |
  DenseAtomicCorrection:             0.026     0.026   0.0% |
  Distribute overlap matrix:         0.006     0.006   0.0% |
  Orbital Layouts:                   0.083     0.083   0.0% |
  Potential matrix:                  0.499     0.499   0.1% |
  Sum over cells:                    0.791     0.791   0.1% |
 LCAO to grid:                       0.773     0.773   0.1% |
 Set positions (LCAO WFS):           0.401     0.001   0.0% |
  Basic WFS set positions:           0.002     0.002   0.0% |
  Basis functions set positions:     0.000     0.000   0.0% |
  TCI: Calculate S, T, P:            0.399     0.399   0.0% |
PWDescriptor:                        0.024     0.024   0.0% |
Redistribute:                        0.000     0.000   0.0% |
SCF-cycle:                         795.416   106.624  13.3% |----|
 CG:                               114.317   103.146  12.9% |----|
  CG: orthonormalize:               11.171     6.265   0.8% |
   CG: overlap:                      3.279     3.279   0.4% |
   CG: overlap2:                     1.627     1.627   0.2% |
 Davidson:                         193.572   105.385  13.1% |----|
  calc. matrices:                   54.917    54.917   6.8% |--|
  diagonalize:                      25.410    25.410   3.2% ||
  rotate_psi:                        7.860     7.860   1.0% |
 Density:                           53.709     0.013   0.0% |
  Atomic density matrices:           0.732     0.732   0.1% |
  Mix:                               2.823     2.823   0.4% |
  Multipole moments:                 0.035     0.035   0.0% |
  Pseudo density:                   50.106    44.168   5.5% |-|
   Symmetrize density:               5.938     5.938   0.7% |
 Hamiltonian:                      117.966     0.229   0.0% |
  Atomic:                           92.528     0.330   0.0% |
   XC Correction:                   92.199    92.199  11.5% |----|
  Calculate atomic Hamiltonians:     1.223     1.223   0.2% |
  Communicate:                       0.003     0.003   0.0% |
  Poisson:                           0.101     0.101   0.0% |
  XC 3D grid:                       23.882    23.882   3.0% ||
 Orthonormalize:                     0.221     0.012   0.0% |
  Band Layouts:                      0.013     0.003   0.0% |
   Inverse Cholesky:                 0.009     0.009   0.0% |
  calc_s_matrix:                     0.037     0.037   0.0% |
  projections:                       0.122     0.122   0.0% |
  rotate_psi:                        0.037     0.037   0.0% |
 Residuals:                         32.475    32.475   4.0% |-|
 Subspace diag:                    176.532     5.896   0.7% |
  Band Layouts:                     19.982     1.716   0.2% |
   Diagonalize:                     17.042    17.042   2.1% ||
   Distribute results:               1.224     1.224   0.2% |
  calc_h_matrix:                   130.794   130.794  16.3% |------|
  rotate_psi:                       19.860    19.860   2.5% ||
Set symmetry:                        0.110     0.110   0.0% |
Other:                               2.878     2.878   0.4% |
-----------------------------------------------------------
Total:                                       801.966 100.0%

Date: Fri Feb 12 07:10:41 2021
element =  Hg
struct =  bcc
kpts =  (8,8,8)
element =  Hg
configuration =  [Xe] 5d10 6s2 6p0
valence =  ['5d', '6s', '6p']
occupations =  {'5d': 10, '6s': 2, '6p': 0}
nls =  5d
rNum =  600
lmax =  f
*******************************************
Starting confinement parameter optimization
Adjustable parameters and initial values:
  Hg_5d.r0 : 4.988877
  Hg_6p.r0 : 4.988877
  Hg_6s.r0 : 4.988877
  Hg_n.r0 : 7.483315
*******************************************

OPT_VAL: 4.988876972209491   4.988876972209491   4.988876972209491   7.4833154583142365
VCONF:
  Hg_5d : PowerConfinement(r0=4.988877, s=2.000000)
  Hg_6p : PowerConfinement(r0=4.988877, s=2.000000)
  Hg_6s : PowerConfinement(r0=4.988877, s=2.000000)
  Hg_n : PowerConfinement(r0=7.483315, s=2.000000)
RESIDUAL: 0.0

OPT_VAL: 5.188876972209491   4.988876972209491   4.988876972209491   7.4833154583142365
VCONF:
  Hg_5d : PowerConfinement(r0=5.188877, s=2.000000)
  Hg_6p : PowerConfinement(r0=4.988877, s=2.000000)
  Hg_6s : PowerConfinement(r0=4.988877, s=2.000000)
  Hg_n : PowerConfinement(r0=7.483315, s=2.000000)
RESIDUAL: 0.0

OPT_VAL: 4.988876972209491   5.188876972209491   4.988876972209491   7.4833154583142365
VCONF:
  Hg_5d : PowerConfinement(r0=4.988877, s=2.000000)
  Hg_6p : PowerConfinement(r0=5.188877, s=2.000000)
  Hg_6s : PowerConfinement(r0=4.988877, s=2.000000)
  Hg_n : PowerConfinement(r0=7.483315, s=2.000000)
RESIDUAL: 0.0

OPT_VAL: 4.988876972209491   4.988876972209491   5.188876972209491   7.4833154583142365
VCONF:
  Hg_5d : PowerConfinement(r0=4.988877, s=2.000000)
  Hg_6p : PowerConfinement(r0=4.988877, s=2.000000)
  Hg_6s : PowerConfinement(r0=5.188877, s=2.000000)
  Hg_n : PowerConfinement(r0=7.483315, s=2.000000)
RESIDUAL: 0.0

OPT_VAL: 4.988876972209491   4.988876972209491   4.988876972209491   7.683315458314237
VCONF:
  Hg_5d : PowerConfinement(r0=4.988877, s=2.000000)
  Hg_6p : PowerConfinement(r0=4.988877, s=2.000000)
  Hg_6s : PowerConfinement(r0=4.988877, s=2.000000)
  Hg_n : PowerConfinement(r0=7.683315, s=2.000000)
RESIDUAL: 0.0

OPT_VAL: 5.013876972209491   4.988876972209491   4.988876972209491   7.4833154583142365
VCONF:
  Hg_5d : PowerConfinement(r0=5.013877, s=2.000000)
  Hg_6p : PowerConfinement(r0=4.988877, s=2.000000)
  Hg_6s : PowerConfinement(r0=4.988877, s=2.000000)
  Hg_n : PowerConfinement(r0=7.483315, s=2.000000)
RESIDUAL: 0.0

OPT_VAL: 4.988876972209491   5.013876972209491   4.988876972209491   7.4833154583142365
VCONF:
  Hg_5d : PowerConfinement(r0=4.988877, s=2.000000)
  Hg_6p : PowerConfinement(r0=5.013877, s=2.000000)
  Hg_6s : PowerConfinement(r0=4.988877, s=2.000000)
  Hg_n : PowerConfinement(r0=7.483315, s=2.000000)
RESIDUAL: 0.0

OPT_VAL: 4.988876972209491   4.988876972209491   5.013876972209491   7.4833154583142365
VCONF:
  Hg_5d : PowerConfinement(r0=4.988877, s=2.000000)
  Hg_6p : PowerConfinement(r0=4.988877, s=2.000000)
  Hg_6s : PowerConfinement(r0=5.013877, s=2.000000)
  Hg_n : PowerConfinement(r0=7.483315, s=2.000000)
RESIDUAL: 0.0

OPT_VAL: 4.988876972209491   4.988876972209491   4.988876972209491   7.508315458314237
VCONF:
  Hg_5d : PowerConfinement(r0=4.988877, s=2.000000)
  Hg_6p : PowerConfinement(r0=4.988877, s=2.000000)
  Hg_6s : PowerConfinement(r0=4.988877, s=2.000000)
  Hg_n : PowerConfinement(r0=7.508315, s=2.000000)
RESIDUAL: 0.0

OPT_VAL: 4.993876972209491   4.988876972209491   4.988876972209491   7.4833154583142365
VCONF:
  Hg_5d : PowerConfinement(r0=4.993877, s=2.000000)
  Hg_6p : PowerConfinement(r0=4.988877, s=2.000000)
  Hg_6s : PowerConfinement(r0=4.988877, s=2.000000)
  Hg_n : PowerConfinement(r0=7.483315, s=2.000000)
RESIDUAL: 0.0

OPT_VAL: 4.988876972209491   4.993876972209491   4.988876972209491   7.4833154583142365
VCONF:
  Hg_5d : PowerConfinement(r0=4.988877, s=2.000000)
  Hg_6p : PowerConfinement(r0=4.993877, s=2.000000)
  Hg_6s : PowerConfinement(r0=4.988877, s=2.000000)
  Hg_n : PowerConfinement(r0=7.483315, s=2.000000)
RESIDUAL: 0.0

OPT_VAL: 4.988876972209491   4.988876972209491   4.993876972209491   7.4833154583142365
VCONF:
  Hg_5d : PowerConfinement(r0=4.988877, s=2.000000)
  Hg_6p : PowerConfinement(r0=4.988877, s=2.000000)
  Hg_6s : PowerConfinement(r0=4.993877, s=2.000000)
  Hg_n : PowerConfinement(r0=7.483315, s=2.000000)
RESIDUAL: 0.0

OPT_VAL: 4.988876972209491   4.988876972209491   4.988876972209491   7.488315458314236
VCONF:
  Hg_5d : PowerConfinement(r0=4.988877, s=2.000000)
  Hg_6p : PowerConfinement(r0=4.988877, s=2.000000)
  Hg_6s : PowerConfinement(r0=4.988877, s=2.000000)
  Hg_n : PowerConfinement(r0=7.488315, s=2.000000)
RESIDUAL: 0.0

*******************************************
Optimization finished after 13 iterations
Adjustable parameters and final values:
  Hg_5d.r0 : 4.988877
  Hg_6p.r0 : 4.988877
  Hg_6s.r0 : 4.988877
  Hg_n.r0 : 7.483315
*******************************************

VCONF:
  Hg_5d : PowerConfinement(r0=4.988877, s=2.000000)
  Hg_6p : PowerConfinement(r0=4.988877, s=2.000000)
  Hg_6s : PowerConfinement(r0=4.988877, s=2.000000)
  Hg_n : PowerConfinement(r0=7.483315, s=2.000000)
